# vtk DataFile Version 4.2 
VTK output 
ASCII
DATASET STRUCTURED_POINTS 
SPACING 1 1 1 
ORIGIN 0 0 0 
DIMENSIONS 30 50 50
POINT_DATA 75000
SCALARS component:0:density float
LOOKUP_TABLE default
0.665035
0.662877
0.663027
0.669176
0.670212
0.664825
0.662904
0.656482
0.651526
0.644317
0.628747
0.606059
0.584
0.558971
0.526824
0.479914
0.446178
0.410033
0.385363
0.37694
0.355233
0.346625
0.341652
0.343309
0.336439
0.336609
0.335485
0.331508
0.327156
0.335701
0.665596
0.668097
0.668882
0.670102
0.662334
0.657711
0.658439
0.65756
0.651799
0.63374
0.630064
0.614802
0.582612
0.553747
0.518806
0.474443
0.443975
0.411925
0.388923
0.371445
0.350438
0.347709
0.350733
0.338046
0.333691
0.337478
0.334653
0.336679
0.33114
0.338683
0.670791
0.668695
0.673901
0.670589
0.662917
0.657322
0.662506
0.654885
0.65443
0.646977
0.633488
0.613205
0.58494
0.550089
0.514773
0.475997
0.441861
0.419201
0.390687
0.373268
0.358094
0.354826
0.346642
0.342679
0.334692
0.330063
0.341234
0.331744
0.329798
0.338016
0.666724
0.667976
0.665812
0.669566
0.669034
0.660362
0.65735
0.655247
0.652397
0.647772
0.631409
0.602912
0.585071
0.556806
0.52139
0.484993
0.450095
0.41305
0.388756
0.373802
0.353458
0.344008
0.342968
0.339913
0.333018
0.337038
0.332367
0.332876
0.330114
0.334746
0.671958
0.669619
0.663681
0.659943
0.660037
0.669968
0.662616
0.657012
0.649986
0.646429
0.623344
0.605224
0.577627
0.552936
0.519618
0.47759
0.446539
0.413359
0.390152
0.374563
0.368256
0.345733
0.337457
0.339753
0.338401
0.334242
0.328491
0.338652
0.335114
0.330188
0.66784
0.664596
0.668301
0.662199
0.66797
0.665852
0.667493
0.656935
0.649386
0.644795
0.627551
0.608087
0.578964
0.553153
0.522718
0.483414
0.440594
0.41779
0.384105
0.363567
0.356124
0.35606
0.338577
0.347679
0.332595
0.331172
0.337097
0.331732
0.335394
0.331878
0.668484
0.662153
0.661273
0.661292
0.66948
0.666322
0.661652
0.66319
0.647964
0.651266
0.635602
0.612386
0.589486
0.555045
0.518077
0.476806
0.438619
0.408652
0.382047
0.365683
0.356469
0.348522
0.337997
0.340401
0.3396
0.338574
0.341623
0.334553
0.335824
0.332832
0.670765
0.66367
0.662051
0.663756
0.661233
0.663551
0.660406
0.652505
0.652151
0.644865
0.631319
0.606006
0.587984
0.552642
0.519344
0.471917
0.439432
0.412618
0.397806
0.371702
0.354772
0.352444
0.342489
0.340623
0.336733
0.336011
0.330899
0.333067
0.331076
0.335638
0.66291
0.666504
0.666242
0.663596
0.664103
0.659848
0.662724
0.655346
0.650161
0.647813
0.629766
0.607938
0.587535
0.558759
0.517469
0.479855
0.446463
0.414667
0.386709
0.374726
0.358055
0.350036
0.342695
0.341487
0.338412
0.333452
0.334545
0.335671
0.332559
0.335912
0.665223
0.661793
0.661637
0.664464
0.667065
0.66612
0.660998
0.661693
0.654933
0.650801
0.630902
0.607055
0.588935
0.552197
0.520885
0.483877
0.455618
0.412908
0.387109
0.374613
0.36304
0.349645
0.350296
0.337344
0.33426
0.334622
0.339471
0.336437
0.334062
0.327942
0.6684
0.66992
0.667686
0.667683
0.668038
0.663905
0.661069
0.652395
0.650301
0.646588
0.632151
0.613456
0.583742
0.552352
0.515142
0.481099
0.446332
0.41281
0.386379
0.366813
0.359954
0.341586
0.34304
0.342206
0.33767
0.336095
0.331345
0.34136
0.341359
0.331732
0.667227
0.673619
0.670556
0.666527
0.663365
0.667465
0.66831
0.65741
0.65115
0.637015
0.621807
0.616262
0.590729
0.560545
0.523305
0.480277
0.445822
0.410711
0.388159
0.371649
0.360028
0.346085
0.342792
0.336102
0.333946
0.332865
0.330379
0.327775
0.329535
0.333822
0.664687
0.665942
0.663202
0.66782
0.665804
0.66315
0.662252
0.645991
0.653422
0.643293
0.626881
0.613798
0.587078
0.558294
0.519168
0.477001
0.444106
0.413087
0.381832
0.369054
0.363491
0.352226
0.345575
0.337105
0.336931
0.337185
0.33281
0.333087
0.335361
0.335127
0.665398
0.662737
0.662117
0.662744
0.662036
0.656748
0.664091
0.649409
0.65264
0.65168
0.628777
0.619578
0.591489
0.554034
0.51557
0.483305
0.444374
0.41964
0.386475
0.371024
0.360375
0.346234
0.34121
0.334914
0.338819
0.347029
0.338861
0.337147
0.340526
0.335781
0.661997
0.661548
0.661397
0.665665
0.665905
0.668897
0.656359
0.658103
0.64758
0.643875
0.626668
0.603287
0.582751
0.555887
0.514266
0.484493
0.447533
0.422006
0.392814
0.371933
0.361358
0.351729
0.342906
0.33444
0.333662
0.337137
0.333233
0.328539
0.334702
0.336365
0.66695
0.66712
0.6615
0.658457
0.661725
0.66729
0.666338
0.655864
0.652591
0.643311
0.628065
0.611517
0.585658
0.555882
0.521928
0.478053
0.438422
0.407832
0.384922
0.371694
0.363707
0.353207
0.343349
0.33859
0.335235
0.334165
0.332637
0.337965
0.340159
0.33497
0.66391
0.667231
0.664633
0.667218
0.66621
0.663626
0.656395
0.653993
0.648605
0.636928
0.631966
0.606443
0.582242
0.558629
0.518191
0.477818
0.44123
0.411208
0.381625
0.373848
0.359856
0.350241
0.337149
0.334193
0.339945
0.338623
0.332629
0.334585
0.331192
0.330008
0.666221
0.666019
0.670308
0.667054
0.665641
0.666651
0.6545
0.655015
0.64859
0.641145
0.623735
0.606585
0.584257
0.555085
0.520042
0.483536
0.438335
0.410068
0.387262
0.367679
0.361073
0.346173
0.339629
0.337716
0.341049
0.338979
0.333677
0.334004
0.335011
0.334119
0.664057
0.668604
0.666277
0.664296
0.667544
0.660174
0.659802
0.663063
0.649452
0.639613
0.62506
0.610568
0.582618
0.557189
0.517073
0.478122
0.445369
0.415572
0.392276
0.375266
0.363957
0.352997
0.340264
0.339802
0.341429
0.334785
0.33735
0.327551
0.32775
0.337994
0.665298
0.669112
0.663982
0.662985
0.66279
0.658629
0.659806
0.658606
0.648286
0.638614
0.632237
0.620149
0.586395
0.557292
0.524012
0.48151
0.438619
0.412917
0.398096
0.379642
0.36621
0.348483
0.3427
0.341512
0.333071
0.333003
0.333923
0.331598
0.337347
0.329326
0.669143
0.668314
0.667607
0.663113
0.660872
0.664199
0.661477
0.654323
0.644039
0.638743
0.629292
0.611672
0.588606
0.554069
0.522835
0.481914
0.439313
0.413607
0.388717
0.372627
0.362239
0.349661
0.34212
0.333946
0.334304
0.334863
0.329297
0.33582
0.330707
0.334276
0.669073
0.66467
0.666897
0.667944
0.669027
0.665051
0.656938
0.662449
0.651707
0.645951
0.629839
0.617599
0.589091
0.553066
0.524412
0.478995
0.438192
0.416133
0.388432
0.36561
0.361488
0.350011
0.345897
0.345634
0.338838
0.343714
0.343057
0.335984
0.337362
0.331084
0.665217
0.667271
0.665786
0.669127
0.67105
0.664887
0.660587
0.659523
0.65155
0.649414
0.627296
0.613747
0.586032
0.551251
0.517112
0.48184
0.439956
0.415457
0.386841
0.371621
0.362494
0.351412
0.341496
0.34099
0.339409
0.334568
0.335578
0.338832
0.335698
0.333099
0.668405
0.66603
0.660501
0.668674
0.666313
0.657224
0.662569
0.659806
0.660445
0.639151
0.632146
0.618381
0.58879
0.557984
0.516646
0.481847
0.444049
0.401625
0.390251
0.371436
0.358155
0.350999
0.344325
0.338372
0.336219
0.344562
0.338152
0.330939
0.333755
0.329202
0.668862
0.667817
0.665695
0.665813
0.660782
0.660439
0.657947
0.662282
0.65544
0.646371
0.629839
0.605492
0.585603
0.561353
0.519285
0.47905
0.453443
0.411195
0.392494
0.36744
0.355221
0.343614
0.347002
0.348069
0.337046
0.335096
0.339113
0.333848
0.335041
0.336098
0.671279
0.66342
0.663921
0.668709
0.663862
0.658941
0.664399
0.648196
0.65569
0.641385
0.632651
0.613394
0.585357
0.554712
0.517245
0.480931
0.449694
0.413056
0.387109
0.370501
0.361761
0.345289
0.348356
0.345504
0.34018
0.332177
0.32285
0.330407
0.333992
0.329489
0.668038
0.666089
0.662717
0.661882
0.667843
0.659938
0.656541
0.651198
0.653285
0.647512
0.628374
0.613327
0.587529
0.565325
0.51938
0.475756
0.449697
0.414059
0.391479
0.372637
0.360403
0.351555
0.341697
0.33999
0.332081
0.328388
0.333269
0.333354
0.334792
0.337778
0.662452
0.669901
0.666168
0.663813
0.665475
0.659939
0.658205
0.659555
0.655805
0.645225
0.627597
0.615245
0.588504
0.560487
0.517839
0.474076
0.440747
0.415701
0.391407
0.370305
0.356146
0.347038
0.350263
0.333083
0.338992
0.339321
0.332592
0.3308
0.334317
0.332996
0.667571
0.664975
0.665802
0.666923
0.659316
0.662065
0.654581
0.656458
0.64857
0.646128
0.63309
0.613488
0.581134
0.559046
0.525518
0.481441
0.441942
0.416432
0.387605
0.370424
0.354276
0.347207
0.345216
0.334848
0.336819
0.333134
0.331894
0.334723
0.332259
0.339546
0.666729
0.662305
0.664031
0.66175
0.663694
0.663043
0.662898
0.665011
0.650517
0.643091
0.629216
0.609989
0.58999
0.558965
0.52068
0.475053
0.437958
0.415345
0.385525
0.375273
0.362217
0.345281
0.34179
0.339578
0.334862
0.336673
0.335496
0.332894
0.33608
0.333156
0.669017
0.667175
0.667184
0.66916
0.657947
0.664436
0.665346
0.65898
0.651785
0.642197
0.630254
0.61527
0.595665
0.560837
0.520402
0.485883
0.449124
0.412663
0.388846
0.368025
0.358413
0.350106
0.345968
0.336204
0.339981
0.337644
0.331192
0.333034
0.327887
0.332879
0.660967
0.664158
0.664675
0.67082
0.663326
0.655471
0.664079
0.656785
0.65315
0.636253
0.631604
0.615244
0.58097
0.553002
0.516921
0.478524
0.443001
0.415481
0.38809
0.373669
0.356668
0.349923
0.343569
0.338017
0.342445
0.332621
0.332622
0.331651
0.330971
0.331544
0.664696
0.667331
0.664703
0.672074
0.66773
0.66784
0.667549
0.656664
0.654473
0.640591
0.633927
0.616691
0.583234
0.561816
0.523752
0.481901
0.446663
0.410147
0.386301
0.372631
0.358826
0.352184
0.344473
0.339031
0.336207
0.332636
0.342499
0.33028
0.331367
0.332789
0.664432
0.668545
0.667947
0.666542
0.663512
0.666883
0.665909
0.650672
0.646246
0.641374
0.627032
0.609748
0.587403
0.56442
0.519996
0.484539
0.45032
0.411619
0.388893
0.371897
0.35488
0.347741
0.34191
0.340938
0.333946
0.329096
0.32942
0.33306
0.340302
0.335511
0.664218
0.66932
0.668546
0.665457
0.66984
0.665884
0.662705
0.659813
0.649678
0.635511
0.627461
0.609273
0.5883
0.554917
0.513734
0.484619
0.443338
0.413994
0.387964
0.376521
0.3564
0.348798
0.345646
0.333013
0.334881
0.338228
0.338352
0.333019
0.328014
0.326204
0.659842
0.662648
0.656399
0.667314
0.663925
0.669031
0.650765
0.655443
0.640555
0.642079
0.632006
0.61132
0.585567
0.557048
0.517124
0.479199
0.443163
0.415452
0.391141
0.364261
0.355382
0.347316
0.347948
0.33719
0.336012
0.333198
0.334162
0.333537
0.330365
0.342921
0.667543
0.660972
0.66539
0.665601
0.662944
0.669394
0.653806
0.655982
0.649583
0.643868
0.630703
0.606026
0.587376
0.556255
0.519001
0.477803
0.435615
0.406097
0.385949
0.36869
0.360612
0.354492
0.347389
0.335756
0.342377
0.332939
0.332584
0.334226
0.333752
0.335871
0.665666
0.665597
0.670122
0.666908
0.664872
0.660741
0.661168
0.660453
0.653034
0.634619
0.637253
0.612125
0.583862
0.553542
0.520231
0.480031
0.447397
0.415752
0.386157
0.365523
0.361379
0.351562
0.345487
0.336863
0.335456
0.332284
0.334573
0.330669
0.332084
0.328435
0.663599
0.672315
0.665029
0.664689
0.664638
0.663132
0.655779
0.660114
0.65047
0.639637
0.628223
0.618809
0.589242
0.552676
0.516418
0.483441
0.448311
0.418055
0.385714
0.371848
0.352142
0.349879
0.340445
0.346449
0.337363
0.32375
0.335204
0.339502
0.336882
0.333189
0.664138
0.665052
0.66723
0.660033
0.663229
0.660184
0.659268
0.65753
0.650114
0.635086
0.626318
0.608366
0.590362
0.554149
0.517566
0.475591
0.444048
0.40727
0.385787
0.365844
0.357933
0.348393
0.341562
0.338178
0.332614
0.330158
0.337228
0.334839
0.33259
0.333103
0.667834
0.666975
0.669661
0.670412
0.66331
0.664251
0.660899
0.654207
0.651583
0.640732
0.63032
0.618546
0.585504
0.553896
0.514091
0.473297
0.440544
0.411341
0.388042
0.366452
0.355768
0.351333
0.341768
0.340331
0.334848
0.336764
0.337253
0.33399
0.340288
0.328445
0.669071
0.661385
0.672334
0.66297
0.664581
0.663408
0.65624
0.653481
0.654668
0.642659
0.627625
0.620473
0.587386
0.558161
0.520868
0.484566
0.443643
0.411197
0.390664
0.371455
0.354549
0.343826
0.34304
0.345195
0.341298
0.344152
0.337934
0.330125
0.336292
0.336396
0.666792
0.667171
0.669633
0.66251
0.660692
0.666207
0.66043
0.660078
0.653146
0.639429
0.622491
0.609718
0.58596
0.555615
0.522301
0.486727
0.439042
0.414034
0.38839
0.364137
0.355752
0.34533
0.344593
0.342044
0.333796
0.335374
0.333672
0.329056
0.332617
0.331109
0.670932
0.669961
0.665582
0.669174
0.66896
0.665254
0.659224
0.654658
0.647737
0.641366
0.630741
0.612325
0.581962
0.549678
0.521701
0.482075
0.439084
0.406066
0.398698
0.367026
0.36052
0.349522
0.340732
0.336995
0.333441
0.334494
0.336981
0.335304
0.327767
0.334928
0.664876
0.663474
0.662233
0.66653
0.659562
0.666595
0.660999
0.657868
0.64781
0.6419
0.633033
0.614023
0.587947
0.555575
0.524751
0.482095
0.445137
0.407175
0.394248
0.372427
0.358564
0.349026
0.345843
0.334179
0.337774
0.335825
0.326229
0.330182
0.329889
0.335589
0.666753
0.674418
0.660578
0.664339
0.665494
0.665086
0.654671
0.655215
0.647226
0.65019
0.630146
0.613295
0.587892
0.552094
0.514522
0.485112
0.447634
0.410845
0.394773
0.366221
0.352622
0.349981
0.347165
0.342656
0.339033
0.336509
0.329822
0.328545
0.334063
0.333611
0.669739
0.67092
0.662822
0.663309
0.664035
0.660357
0.658189
0.658198
0.657041
0.645682
0.626021
0.616767
0.591005
0.553994
0.514153
0.472751
0.438763
0.404027
0.386894
0.371031
0.359212
0.349053
0.339846
0.345979
0.343416
0.337859
0.335941
0.33429
0.329534
0.328718
0.662085
0.668636
0.663452
0.67044
0.669018
0.658402
0.658267
0.657887
0.646149
0.644231
0.630388
0.610974
0.578937
0.557166
0.518693
0.480933
0.446051
0.416315
0.38473
0.368551
0.356836
0.350919
0.342772
0.335109
0.332893
0.333016
0.334186
0.330765
0.337853
0.334825
0.658798
0.661744
0.666497
0.662441
0.663034
0.666845
0.659938
0.657511
0.644294
0.635486
0.63172
0.610459
0.581226
0.557257
0.519962
0.490113
0.442685
0.410566
0.38777
0.371951
0.354899
0.347205
0.343088
0.336154
0.336728
0.334366
0.334824
0.329123
0.335324
0.336284
0.668374
0.67178
0.670259
0.662104
0.658546
0.661989
0.664889
0.658745
0.650103
0.642337
0.630992
0.614969
0.588604
0.552396
0.515206
0.480119
0.4428
0.413463
0.393264
0.371818
0.351337
0.34584
0.341137
0.336204
0.33791
0.339716
0.333172
0.339896
0.333534
0.336926
0.668391
0.67125
0.664332
0.658979
0.666587
0.664671
0.657878
0.659441
0.643276
0.639293
0.631537
0.607652
0.596417
0.556249
0.522332
0.492281
0.450664
0.420268
0.383884
0.370727
0.356337
0.346142
0.34728
0.338393
0.335169
0.32777
0.337829
0.339604
0.3342
0.333293
0.668441
0.666589
0.666264
0.667746
0.667402
0.66532
0.652722
0.659665
0.653462
0.646495
0.630498
0.615078
0.589852
0.555922
0.521226
0.474287
0.441706
0.411993
0.386091
0.375022
0.351732
0.345199
0.345133
0.33868
0.332573
0.334664
0.331866
0.333064
0.332038
0.335426
0.664499
0.668369
0.669197
0.670251
0.667675
0.662677
0.664241
0.655521
0.656908
0.647347
0.636048
0.618532
0.585527
0.562967
0.522204
0.473867
0.445859
0.415485
0.388609
0.37126
0.35498
0.344639
0.340196
0.33826
0.337541
0.33059
0.337025
0.331195
0.335175
0.333928
0.664592
0.66617
0.66334
0.667051
0.669856
0.667
0.662099
0.655317
0.654977
0.643635
0.629921
0.609809
0.583494
0.557197
0.523478
0.478639
0.447361
0.413578
0.39291
0.374672
0.35761
0.348596
0.34671
0.34395
0.338124
0.336327
0.332998
0.336499
0.334084
0.332857
0.669026
0.66286
0.66397
0.664789
0.664721
0.664086
0.656256
0.656153
0.652546
0.645823
0.627739
0.610381
0.579871
0.555063
0.518427
0.47794
0.453275
0.409416
0.389133
0.370802
0.359533
0.351575
0.346917
0.344554
0.335231
0.338345
0.331641
0.337649
0.329192
0.33543
0.670246
0.660048
0.668701
0.662301
0.667275
0.666223
0.660212
0.658583
0.649335
0.638962
0.624543
0.618368
0.584135
0.556305
0.519647
0.475096
0.441431
0.411743
0.390063
0.3622
0.357484
0.355342
0.339324
0.339333
0.33221
0.337675
0.336042
0.339277
0.330687
0.331093
0.664166
0.665356
0.66384
0.662904
0.669488
0.665168
0.660467
0.656965
0.653028
0.644889
0.630013
0.613929
0.580162
0.54997
0.519842
0.476454
0.444906
0.41104
0.386345
0.36693
0.360189
0.358453
0.348785
0.338064
0.338878
0.334366
0.334897
0.334857
0.340441
0.334564
0.665873
0.663855
0.667243
0.665139
0.665531
0.660078
0.6575
0.654824
0.656187
0.645721
0.638632
0.614855
0.587299
0.552333
0.518755
0.473086
0.447004
0.413016
0.388341
0.368981
0.355676
0.344476
0.346237
0.343195
0.342389
0.337279
0.333639
0.33044
0.333646
0.333252
0.665744
0.667632
0.663762
0.665012
0.665898
0.660466
0.659902
0.652663
0.650655
0.646392
0.629289
0.606221
0.587639
0.558146
0.515384
0.474464
0.446024
0.414252
0.385151
0.371434
0.353886
0.35014
0.341609
0.341089
0.337958
0.33858
0.337927
0.338545
0.332822
0.338811
0.661705
0.665431
0.666456
0.664722
0.670019
0.662882
0.655834
0.66021
0.648654
0.646513
0.623341
0.615288
0.585731
0.551534
0.520066
0.478381
0.443855
0.406494
0.388863
0.369778
0.359043
0.348296
0.341802
0.336432
0.337628
0.336151
0.338288
0.339005
0.334234
0.331591
0.665401
0.663276
0.663461
0.658043
0.670191
0.663897
0.65512
0.653267
0.652901
0.646248
0.628894
0.612857
0.589198
0.55635
0.522489
0.484828
0.444722
0.411957
0.387222
0.368059
0.353372
0.346615
0.343458
0.33982
0.334688
0.335926
0.331715
0.335165
0.338359
0.332864
0.674256
0.667749
0.666684
0.666124
0.667025
0.669083
0.666978
0.652804
0.650807
0.646758
0.632166
0.610201
0.593443
0.552963
0.526097
0.487197
0.447423
0.410313
0.391891
0.368759
0.359692
0.349989
0.342086
0.339227
0.34004
0.335786
0.33675
0.333038
0.333479
0.330077
0.662571
0.671622
0.67025
0.668342
0.663674
0.659024
0.654466
0.653076
0.647297
0.647159
0.63041
0.61893
0.597476
0.559281
0.524092
0.47743
0.442137
0.414489
0.387578
0.367897
0.358117
0.349717
0.340873
0.341639
0.336787
0.330961
0.335297
0.331774
0.336847
0.330473
0.664536
0.665514
0.669817
0.666166
0.668123
0.663551
0.661133
0.650905
0.642977
0.644
0.627093
0.620462
0.588901
0.558699
0.514372
0.476207
0.442654
0.409809
0.387276
0.370057
0.361031
0.346149
0.343653
0.34042
0.338012
0.334939
0.331711
0.32871
0.334684
0.328241
0.662435
0.663434
0.665761
0.666944
0.662558
0.661872
0.663315
0.658484
0.649882
0.639831
0.628298
0.607571
0.584157
0.558059
0.518658
0.471512
0.446566
0.414881
0.3899
0.36442
0.358734
0.345729
0.344663
0.341547
0.340797
0.336766
0.332835
0.332094
0.333526
0.334696
0.669673
0.66353
0.667734
0.666489
0.667392
0.662331
0.663643
0.657783
0.650603
0.647037
0.627912
0.606409
0.584708
0.555773
0.520548
0.479895
0.440555
0.411922
0.386071
0.371529
0.358035
0.348729
0.344861
0.331743
0.339095
0.338415
0.336694
0.336863
0.33823
0.330506
0.673747
0.673725
0.662463
0.661399
0.662766
0.664251
0.663598
0.656237
0.646589
0.642673
0.631578
0.615369
0.586401
0.54587
0.512521
0.480534
0.443886
0.408927
0.385779
0.376656
0.361528
0.352274
0.342671
0.338558
0.340205
0.335368
0.334058
0.335603
0.3364
0.338312
0.669199
0.665411
0.666131
0.665734
0.6642
0.661937
0.660972
0.666998
0.648607
0.643403
0.630708
0.618816
0.582363
0.554949
0.515827
0.480006
0.443787
0.413797
0.390546
0.369913
0.364273
0.340734
0.342063
0.343634
0.342586
0.334586
0.334372
0.333848
0.332832
0.336227
0.665531
0.669076
0.667378
0.666944
0.665033
0.662776
0.662436
0.654289
0.649684
0.644521
0.627624
0.612705
0.581348
0.557685
0.517027
0.476083
0.442172
0.412166
0.391609
0.368987
0.357399
0.347253
0.340186
0.341952
0.336754
0.331666
0.338702
0.331635
0.339228
0.333812
0.670595
0.663506
0.667259
0.664789
0.66297
0.660497
0.661339
0.657341
0.64846
0.639231
0.63545
0.619911
0.587099
0.551418
0.520832
0.480734
0.442081
0.408091
0.391355
0.376657
0.362663
0.350983
0.341253
0.34221
0.336287
0.332541
0.331334
0.329674
0.330923
0.335966
0.672213
0.668651
0.66886
0.663174
0.662209
0.663555
0.664086
0.66196
0.651453
0.63982
0.627607
0.609118
0.587125
0.547609
0.523993
0.484505
0.442623
0.407122
0.384678
0.372227
0.358102
0.34676
0.340702
0.343564
0.340427
0.331346
0.334389
0.327707
0.329935
0.335065
0.660934
0.660381
0.667284
0.663444
0.657303
0.659456
0.662876
0.666868
0.652126
0.634573
0.627454
0.616333
0.590102
0.556909
0.517992
0.483768
0.447502
0.412807
0.389916
0.36524
0.355031
0.34203
0.342228
0.341814
0.334661
0.333933
0.331214
0.32731
0.335913
0.330588
0.666266
0.663842
0.66953
0.662956
0.667509
0.667306
0.65818
0.660068
0.650958
0.638192
0.621035
0.610939
0.583009
0.556274
0.516553
0.47925
0.444842
0.414129
0.384988
0.368592
0.357405
0.349126
0.35053
0.346822
0.341579
0.333816
0.329776
0.331715
0.328258
0.332936
0.671242
0.664608
0.667918
0.666197
0.662925
0.661468
0.657121
0.657573
0.655515
0.643329
0.628171
0.61882
0.589869
0.555065
0.517763
0.477854
0.441658
0.418438
0.390622
0.373241
0.355696
0.348162
0.346719
0.347891
0.331631
0.334758
0.330145
0.329506
0.328972
0.331975
0.66811
0.664007
0.66896
0.667273
0.665707
0.669999
0.657371
0.657688
0.655106
0.646615
0.633778
0.619946
0.589793
0.551835
0.516362
0.486981
0.444539
0.412343
0.39008
0.369514
0.35519
0.346209
0.342203
0.340043
0.335638
0.338173
0.33361
0.332826
0.333638
0.332362
0.670399
0.662647
0.665771
0.671427
0.669425
0.660543
0.664644
0.651701
0.651881
0.638196
0.625078
0.6102
0.590162
0.553788
0.513727
0.479562
0.440336
0.414597
0.389633
0.371659
0.351868
0.346762
0.337351
0.34254
0.336493
0.338806
0.332192
0.335879
0.331159
0.333242
0.664866
0.670031
0.662757
0.669288
0.665448
0.663153
0.66239
0.655827
0.650243
0.643144
0.626574
0.609589
0.584245
0.555265
0.517107
0.479728
0.450639
0.413041
0.390309
0.377601
0.361734
0.349322
0.345513
0.347036
0.344463
0.341188
0.340894
0.333163
0.334953
0.336367
0.662337
0.664443
0.659993
0.664244
0.666867
0.664521
0.659231
0.653171
0.649071
0.641902
0.630375
0.613561
0.58806
0.557181
0.516232
0.475241
0.450651
0.409156
0.384762
0.367838
0.357066
0.347045
0.345791
0.340618
0.343871
0.341184
0.33372
0.334006
0.336513
0.336015
0.66461
0.663735
0.667238
0.665382
0.668503
0.6638
0.661304
0.656702
0.6545
0.634167
0.633815
0.617154
0.58786
0.562282
0.521432
0.478184
0.445662
0.413547
0.385668
0.372533
0.359798
0.3488
0.338322
0.341748
0.344232
0.337056
0.334802
0.333215
0.33163
0.336191
0.664437
0.665263
0.661277
0.660733
0.664763
0.666417
0.665495
0.662656
0.654532
0.646741
0.634393
0.613346
0.586664
0.549361
0.512757
0.476789
0.440425
0.414789
0.385308
0.37247
0.356474
0.346002
0.345009
0.342929
0.331862
0.336792
0.334994
0.332024
0.341946
0.331187
0.664911
0.668681
0.667624
0.66474
0.667514
0.655395
0.657519
0.65775
0.6491
0.640842
0.631323
0.614302
0.587027
0.554737
0.516481
0.478057
0.436057
0.416191
0.392305
0.373564
0.360067
0.348284
0.343776
0.341594
0.33893
0.338759
0.333986
0.336518
0.334436
0.331415
0.663673
0.66641
0.669464
0.666263
0.669124
0.659367
0.661733
0.659287
0.652218
0.641368
0.627156
0.61062
0.587099
0.555286
0.517789
0.480917
0.439753
0.409327
0.381239
0.3653
0.36114
0.355144
0.341681
0.334164
0.340107
0.336898
0.337029
0.337726
0.33256
0.332922
0.665078
0.666215
0.663788
0.668574
0.663295
0.662582
0.661755
0.655004
0.648318
0.64179
0.630864
0.612359
0.580834
0.553025
0.520174
0.476039
0.444045
0.413339
0.38012
0.367841
0.361521
0.348295
0.34209
0.341893
0.335149
0.336
0.334285
0.330811
0.336651
0.331308
0.669157
0.670186
0.658263
0.667645
0.663434
0.659475
0.661829
0.650106
0.641636
0.644656
0.633191
0.613835
0.59038
0.555217
0.519608
0.486502
0.450387
0.408018
0.392772
0.368907
0.354975
0.34611
0.3396
0.337601
0.339169
0.334028
0.327851
0.327867
0.334419
0.329437
0.666564
0.669059
0.662692
0.665354
0.667979
0.663973
0.662162
0.659814
0.648907
0.637349
0.633921
0.604441
0.588685
0.555796
0.516994
0.479393
0.448062
0.416906
0.387265
0.368572
0.352893
0.349143
0.345324
0.334239
0.332593
0.332697
0.333474
0.331304
0.332652
0.328353
0.662441
0.662822
0.663527
0.666459
0.660918
0.658378
0.658853
0.659186
0.653574
0.6393
0.623428
0.608797
0.581585
0.555741
0.526485
0.484425
0.442512
0.416448
0.386688
0.371299
0.352798
0.351023
0.343189
0.336892
0.339375
0.335826
0.332294
0.33597
0.33325
0.32907
0.667015
0.663086
0.666179
0.663711
0.660039
0.667676
0.65575
0.657256
0.651023
0.646109
0.630214
0.613645
0.58698
0.555398
0.509129
0.479694
0.441896
0.412345
0.388687
0.375259
0.360806
0.349898
0.344987
0.341634
0.33736
0.337439
0.335992
0.332861
0.333092
0.34026
0.669354
0.673931
0.672504
0.663463
0.664583
0.661272
0.657233
0.657085
0.657945
0.645263
0.633928
0.616571
0.580614
0.553799
0.521557
0.479793
0.445797
0.418917
0.390381
0.37206
0.357765
0.347112
0.337585
0.337883
0.337037
0.333685
0.333248
0.333954
0.330371
0.339428
0.668241
0.668019
0.662974
0.671788
0.666634
0.662532
0.66209
0.654048
0.653658
0.645059
0.633417
0.611968
0.586205
0.55911
0.521814
0.479565
0.444194
0.414121
0.387378
0.369926
0.360297
0.351837
0.343139
0.341304
0.335248
0.333225
0.332283
0.338178
0.332475
0.337967
0.660593
0.668795
0.663877
0.669923
0.661494
0.662462
0.66031
0.653179
0.653665
0.640487
0.628083
0.606731
0.587779
0.556945
0.518764
0.481682
0.448758
0.40922
0.388477
0.369503
0.356782
0.351781
0.348241
0.336511
0.341435
0.337662
0.33709
0.337118
0.337929
0.330686
0.663365
0.671219
0.664908
0.665165
0.66362
0.668843
0.659439
0.652762
0.655857
0.643864
0.637615
0.618741
0.591515
0.556941
0.515436
0.482484
0.444937
0.406307
0.390824
0.370232
0.356049
0.352196
0.339412
0.341822
0.333409
0.336079
0.335553
0.335458
0.340848
0.33818
0.657949
0.664318
0.656549
0.665793
0.663071
0.658954
0.655194
0.654468
0.648575
0.644579
0.625931
0.614568
0.585438
0.565173
0.519791
0.484233
0.443815
0.409608
0.389641
0.369571
0.357834
0.348994
0.344496
0.344697
0.337909
0.3375
0.326132
0.33246
0.338538
0.339903
0.663313
0.666853
0.667112
0.670076
0.668275
0.665339
0.662689
0.664183
0.65421
0.646472
0.629977
0.604109
0.587342
0.559251
0.520906
0.482711
0.441053
0.412723
0.38721
0.372106
0.354275
0.341259
0.340047
0.33727
0.331841
0.338722
0.331694
0.331741
0.336298
0.329014
0.665604
0.661353
0.663514
0.667139
0.668307
0.662038
0.658133
0.660184
0.651943
0.638827
0.627141
0.606678
0.587381
0.547929
0.515853
0.481006
0.440014
0.414616
0.393041
0.36622
0.357361
0.345897
0.343592
0.341253
0.333011
0.338393
0.330021
0.330077
0.340719
0.33546
0.665982
0.662782
0.664636
0.664782
0.659238
0.665904
0.662445
0.659541
0.650261
0.643566
0.630349
0.608385
0.582647
0.555943
0.520496
0.48158
0.444632
0.410246
0.391247
0.368271
0.358043
0.34731
0.341907
0.336941
0.334248
0.339349
0.328596
0.333091
0.331892
0.340481
0.671183
0.666878
0.669404
0.668057
0.659995
0.664489
0.655022
0.66011
0.64871
0.644054
0.626035
0.61232
0.586233
0.552812
0.52373
0.478561
0.443764
0.414877
0.387595
0.368514
0.356418
0.349947
0.343919
0.336195
0.336854
0.334525
0.334638
0.336883
0.33522
0.338135
0.66909
0.672975
0.666916
0.663979
0.662571
0.666459
0.664421
0.659242
0.653855
0.641046
0.629401
0.616565
0.593895
0.558428
0.518173
0.472275
0.43694
0.411899
0.393326
0.365797
0.357957
0.347687
0.34188
0.33472
0.33471
0.335004
0.336365
0.335568
0.340821
0.333505
0.664873
0.666327
0.662486
0.66755
0.660124
0.662567
0.661766
0.662937
0.658476
0.648187
0.626843
0.613632
0.588629
0.554351
0.520451
0.475129
0.449485
0.411117
0.384716
0.372566
0.356676
0.352886
0.346059
0.332176
0.328265
0.33121
0.333855
0.335223
0.339381
0.331595
0.663864
0.658034
0.668297
0.669263
0.659668
0.670667
0.657696
0.652427
0.648455
0.640776
0.622319
0.610587
0.591662
0.553719
0.515383
0.485116
0.449591
0.411349
0.385497
0.367901
0.354288
0.351623
0.339118
0.334758
0.337511
0.341149
0.335853
0.329928
0.335447
0.333191
0.667108
0.659877
0.674874
0.668352
0.659502
0.665953
0.662469
0.657757
0.647629
0.643583
0.629187
0.6127
0.586573
0.550019
0.51665
0.486783
0.446728
0.412014
0.390332
0.369675
0.352657
0.350779
0.338252
0.342073
0.339864
0.336325
0.337707
0.333022
0.333158
0.335348
0.664883
0.662863
0.666551
0.667177
0.663988
0.667109
0.655362
0.655943
0.650902
0.643199
0.62722
0.611738
0.58712
0.558653
0.516267
0.477655
0.442055
0.417456
0.385878
0.357621
0.354503
0.350937
0.345078
0.33888
0.341762
0.33313
0.327436
0.337124
0.327324
0.331873
0.670468
0.666957
0.662133
0.66486
0.663526
0.663704
0.658298
0.657994
0.650304
0.641445
0.624736
0.616323
0.590003
0.560384
0.525162
0.479699
0.44408
0.412896
0.387845
0.371705
0.349659
0.349015
0.340954
0.331484
0.332342
0.333814
0.338423
0.34312
0.330882
0.33608
0.670277
0.662032
0.666522
0.668684
0.661392
0.66326
0.659495
0.65771
0.654094
0.647218
0.631095
0.613962
0.588865
0.563937
0.52291
0.484031
0.448736
0.411807
0.393483
0.369714
0.353219
0.350801
0.343205
0.340867
0.338785
0.339044
0.337911
0.338478
0.334404
0.334918
0.667908
0.6637
0.672044
0.671103
0.667969
0.664728
0.658009
0.659856
0.647472
0.641382
0.629925
0.613059
0.588339
0.562633
0.513952
0.474687
0.44043
0.413283
0.387729
0.37474
0.356887
0.34573
0.335305
0.33709
0.339956
0.336851
0.336503
0.337577
0.332172
0.337285
0.665868
0.660301
0.664742
0.667104
0.667333
0.660616
0.660227
0.656952
0.647336
0.636605
0.636177
0.608671
0.582773
0.554151
0.516746
0.487136
0.442302
0.409966
0.393486
0.376567
0.35901
0.349672
0.343353
0.341453
0.335223
0.335088
0.332691
0.334416
0.332882
0.332623
0.670265
0.664352
0.668597
0.666781
0.65543
0.65953
0.66068
0.656147
0.649869
0.642876
0.63004
0.611355
0.579957
0.550942
0.518592
0.482001
0.447038
0.415028
0.392838
0.37448
0.356352
0.352637
0.342021
0.341898
0.3365
0.33662
0.336123
0.330958
0.331332
0.334716
0.666153
0.670247
0.66712
0.664071
0.661106
0.661755
0.662764
0.655525
0.651708
0.636396
0.624327
0.611533
0.582985
0.549297
0.519476
0.479209
0.440755
0.41342
0.385448
0.364511
0.361986
0.354703
0.338723
0.335832
0.334833
0.333946
0.335733
0.338859
0.334589
0.330418
0.666628
0.66691
0.665139
0.664892
0.674383
0.666445
0.661917
0.657229
0.65546
0.647264
0.628019
0.611257
0.583477
0.550816
0.521732
0.482821
0.439321
0.416048
0.384436
0.369147
0.358842
0.3466
0.344742
0.338715
0.337089
0.330953
0.339803
0.340912
0.33554
0.329596
0.666433
0.667539
0.664157
0.666886
0.661557
0.656764
0.654764
0.65779
0.650367
0.646297
0.631594
0.614312
0.583083
0.553288
0.517052
0.485741
0.45444
0.413304
0.385529
0.371721
0.349501
0.34592
0.344042
0.339356
0.338971
0.334829
0.333823
0.335849
0.330044
0.336119
0.666039
0.668349
0.658119
0.666167
0.664642
0.656727
0.660421
0.655685
0.640274
0.640776
0.631222
0.608358
0.584107
0.551199
0.516626
0.487493
0.439516
0.409107
0.391435
0.370475
0.359629
0.351782
0.347979
0.335196
0.343268
0.335566
0.332417
0.327408
0.329108
0.33712
0.66616
0.669774
0.667096
0.667931
0.668682
0.655732
0.661704
0.659951
0.64908
0.639282
0.632066
0.6113
0.588462
0.557792
0.518134
0.483412
0.443472
0.411826
0.396485
0.374512
0.359497
0.344867
0.342582
0.342378
0.338389
0.336521
0.327763
0.333113
0.331504
0.328057
0.662062
0.664115
0.669153
0.672444
0.666327
0.664121
0.665978
0.657711
0.651265
0.644275
0.630829
0.609205
0.589706
0.554191
0.52386
0.481269
0.444474
0.413864
0.388032
0.370983
0.360812