# vtk DataFile Version 4.2 
VTK output 
ASCII
DATASET STRUCTURED_POINTS 
SPACING 1 1 1 
ORIGIN 0 0 0 
DIMENSIONS 30 50 50
POINT_DATA 75000
SCALARS component:0:density float
LOOKUP_TABLE default
0.66549
0.668418
0.663274
0.668045
0.661746
0.657327
0.660503
0.653984
0.656138
0.637113
0.634544
0.616321
0.594701
0.558519
0.516946
0.485281
0.442036
0.41062
0.392822
0.368115
0.35846
0.352617
0.343074
0.340227
0.335288
0.338791
0.339861
0.333238
0.336367
0.331926
0.668284
0.662443
0.666188
0.67043
0.667987
0.661966
0.665602
0.652528
0.648114
0.63908
0.632834
0.614489
0.584797
0.55653
0.518979
0.484613
0.449745
0.41423
0.395245
0.378203
0.360293
0.345023
0.343361
0.338467
0.334764
0.338542
0.336102
0.330434
0.332092
0.332032
0.668983
0.671535
0.668445
0.661809
0.665155
0.660268
0.660491
0.653938
0.651863
0.639968
0.637097
0.615474
0.589123
0.555085
0.522825
0.483688
0.447129
0.420209
0.389495
0.380405
0.361478
0.352916
0.344377
0.338313
0.329734
0.335943
0.328685
0.340418
0.332305
0.331906
0.671441
0.668516
0.672711
0.663984
0.663612
0.666278
0.66687
0.661364
0.651256
0.642507
0.628257
0.615634
0.588375
0.557922
0.518515
0.483085
0.445596
0.411302
0.393909
0.370053
0.361371
0.351582
0.345888
0.337683
0.328715
0.329697
0.333134
0.339779
0.331904
0.331152
0.671635
0.66514
0.658354
0.66263
0.665086
0.661843
0.666849
0.662502
0.660808
0.640852
0.621612
0.608314
0.583782
0.556811
0.511473
0.477706
0.44393
0.40613
0.39088
0.365442
0.356691
0.342035
0.339967
0.335959
0.337662
0.335135
0.336319
0.33071
0.329386
0.339583
0.660189
0.66602
0.665351
0.663021
0.661018
0.660732
0.659565
0.65586
0.651921
0.646628
0.628748
0.605677
0.582603
0.555231
0.515333
0.484707
0.446297
0.414169
0.383258
0.369011
0.362086
0.346438
0.335924
0.339454
0.343093
0.335924
0.328494
0.331146
0.328935
0.338199
0.665791
0.670938
0.667274
0.66909
0.66282
0.662167
0.662134
0.656336
0.651167
0.65275
0.637547
0.612681
0.580688
0.553339
0.515763
0.481179
0.451485
0.414201
0.391507
0.375921
0.363201
0.351746
0.347952
0.347771
0.339283
0.334407
0.335932
0.340127
0.334706
0.33224
0.670572
0.670446
0.666149
0.66793
0.658788
0.662216
0.656085
0.656686
0.650461
0.646473
0.631882
0.611577
0.582769
0.549901
0.510238
0.484342
0.44356
0.40716
0.392778
0.374726
0.35734
0.348787
0.342171
0.343622
0.339032
0.333479
0.336994
0.340007
0.340769
0.328923
0.662565
0.661324
0.664025
0.663952
0.661499
0.661934
0.655008
0.658481
0.651418
0.645063
0.630447
0.614422
0.590259
0.559437
0.514494
0.481027
0.444094
0.415024
0.38426
0.377447
0.354931
0.348112
0.344342
0.337476
0.339384
0.338768
0.338244
0.339717
0.33373
0.328129
0.663014
0.663086
0.660398
0.662987
0.664441
0.657533
0.655856
0.660485
0.651782
0.644739
0.628833
0.61188
0.585581
0.560991
0.524146
0.481546
0.448836
0.414354
0.374542
0.369112
0.356054
0.348037
0.343791
0.342713
0.343125
0.333764
0.334922
0.332639
0.332823
0.337629
0.667001
0.670329
0.669011
0.664732
0.666876
0.66286
0.654756
0.662184
0.650837
0.643307
0.627106
0.608425
0.586623
0.555759
0.511194
0.483426
0.444131
0.407871
0.383826
0.370304
0.363022
0.343071
0.347317
0.334308
0.333684
0.335458
0.333279
0.333293
0.331268
0.328446
0.67296
0.668036
0.67016
0.661345
0.661411
0.664814
0.658856
0.663198
0.651998
0.643332
0.628862
0.622242
0.584956
0.554608
0.514439
0.476047
0.436224
0.410663
0.38932
0.369418
0.35665
0.347613
0.342113
0.33746
0.335221
0.332707
0.330829
0.339481
0.333882
0.337546
0.667279
0.668675
0.666346
0.668689
0.662376
0.66531
0.658614
0.658995
0.649322
0.640841
0.632107
0.61992
0.583556
0.552962
0.517856
0.481057
0.435226
0.41614
0.394735
0.369695
0.362175
0.354084
0.342923
0.342508
0.344276
0.332729
0.324301
0.335769
0.339286
0.340258
0.661227
0.670057
0.669505
0.673199
0.662368
0.667358
0.668436
0.656667
0.652272
0.645238
0.63111
0.60602
0.581585
0.554671
0.516276
0.479252
0.435817
0.418923
0.391734
0.372356
0.357424
0.348779
0.347344
0.339057
0.343806
0.333118
0.328991
0.331045
0.337741
0.333379
0.664565
0.665074
0.669448
0.667106
0.665349
0.659248
0.66257
0.658156
0.652272
0.649852
0.628502
0.61503
0.586454
0.550253
0.522818
0.481814
0.44361
0.410124
0.387605
0.374302
0.356152
0.350166
0.34343
0.342566
0.334124
0.330375
0.335801
0.334349
0.330565
0.338524
0.671782
0.660111
0.660078
0.661978
0.66538
0.661864
0.664483
0.661064
0.649317
0.646448
0.633503
0.6156
0.591327
0.55681
0.515104
0.480824
0.447799
0.40824
0.389435
0.376983
0.363716
0.348126
0.343418
0.342299
0.338505
0.336165
0.335919
0.333737
0.331973
0.331788
0.672957
0.666627
0.66985
0.667289
0.662042
0.663917
0.663083
0.660429
0.648632
0.643267
0.637141
0.617654
0.58597
0.554658
0.517502
0.476001
0.437621
0.409811
0.383614
0.377335
0.363412
0.348211
0.340398
0.333651
0.33337
0.338981
0.336677
0.331697
0.335944
0.336545
0.662119
0.666618
0.667285
0.667035
0.658164
0.660643
0.664565
0.655144
0.652336
0.647979
0.629398
0.612074
0.582054
0.553527
0.517211
0.479657
0.437237
0.412239
0.389462
0.371091
0.361722
0.351134
0.342832
0.335634
0.345004
0.331064
0.3363
0.337025
0.330448
0.335476
0.669825
0.665131
0.672646
0.667325
0.658557
0.672229
0.662656
0.654658
0.643735
0.639156
0.628587
0.612738
0.586451
0.562071
0.51492
0.479255
0.444275
0.416884
0.387069
0.369334
0.359795
0.354213
0.341234
0.334041
0.335922
0.341929
0.339571
0.335368
0.338358
0.339076
0.663997
0.664515
0.668888
0.668122
0.665461
0.666483
0.664653
0.659163
0.644973
0.641826
0.631349
0.621119
0.591212
0.558614
0.513501
0.47897
0.447376
0.413666
0.388049
0.369086
0.360466
0.348909
0.344836
0.337895
0.334092
0.334687
0.326846
0.333856
0.331845
0.333526
0.668086
0.664078
0.666491
0.666973
0.659761
0.661686
0.660531
0.656204
0.648841
0.639305
0.636706
0.617196
0.587329
0.552506
0.512069
0.482508
0.449701
0.411474
0.382519
0.369632
0.360066
0.358868
0.343002
0.332208
0.336856
0.336464
0.329614
0.337605
0.331252
0.329159
0.666932
0.664166
0.668484
0.662396
0.660036
0.66262
0.658651
0.664307
0.6535
0.6431
0.628901
0.617125
0.591597
0.555346
0.518815
0.479352
0.441384
0.414394
0.391162
0.370691
0.353861
0.349382
0.342492
0.33634
0.337075
0.330084
0.336213
0.333712
0.331817
0.326897
0.669854
0.665041
0.666648
0.665525
0.664151
0.665793
0.655615
0.658477
0.648097
0.639785
0.631226
0.619389
0.58974
0.558857
0.517396
0.470454
0.443358
0.410145
0.390347
0.365281
0.352344
0.356218
0.344411
0.340107
0.342405
0.334636
0.33162
0.33974
0.33857
0.335773
0.664285
0.667218
0.667915
0.66734
0.667852
0.664106
0.650925
0.649368
0.644439
0.634228
0.622491
0.608885
0.591197
0.556485
0.520112
0.489985
0.447524
0.413835
0.395728
0.367292
0.356143
0.349025
0.345401
0.340733
0.33877
0.339391
0.331965
0.330742
0.326669
0.336898
0.668695
0.664086
0.666151
0.672579
0.664835
0.667867
0.663078
0.658425
0.651925
0.644229
0.635711
0.618533
0.590668
0.560175
0.51694
0.473282
0.445792
0.411191
0.393224
0.369873
0.363572
0.347814
0.344026
0.336798
0.329796
0.337742
0.330695
0.333494
0.329603
0.337708
0.672206
0.666463
0.670296
0.667512
0.67064
0.669592
0.659917
0.668006
0.651693
0.64918
0.635551
0.612442
0.581612
0.547794
0.519704
0.483245
0.438314
0.411465
0.384726
0.37381
0.359838
0.348785
0.342319
0.341068
0.334053
0.336201
0.333422
0.332858
0.323555
0.331299
0.669542
0.669845
0.667498
0.664674
0.664092
0.658825
0.65599
0.656688
0.647971
0.643535
0.63052
0.607991
0.591902
0.562019
0.522617
0.487781
0.442092
0.410284
0.392055
0.378251
0.359918
0.343326
0.339277
0.337012
0.337165
0.338198
0.339186
0.336054
0.333086
0.334452
0.667977
0.658697
0.665698
0.665847
0.662938
0.661136
0.658606
0.656762
0.646208
0.637928
0.624584
0.614785
0.587946
0.548156
0.522105
0.479829
0.438568
0.416729
0.386156
0.375861
0.356938
0.347152
0.345514
0.342771
0.335345
0.336357
0.333451
0.329216
0.329787
0.325447
0.666808
0.660842
0.663576
0.667948
0.660771
0.66109
0.666565
0.661523
0.657854
0.641639
0.633906
0.615471
0.584698
0.551275
0.519231
0.487468
0.444679
0.41657
0.389753
0.374507
0.360919
0.344202
0.346386
0.344942
0.340649
0.343289
0.342691
0.338162
0.340124
0.335483
0.665477
0.663185
0.664146
0.671339
0.670777
0.668188
0.657149
0.656943
0.653873
0.641773
0.636681
0.610577
0.585179
0.553233
0.518038
0.481798
0.443241
0.408798
0.387411
0.379027
0.367899
0.352787
0.344341
0.344578
0.343556
0.32745
0.331126
0.339254
0.335468
0.336178
0.663179
0.666298
0.663066
0.665682
0.662263
0.661261
0.652923
0.651228
0.654595
0.64555
0.629171
0.61365
0.590402
0.554197
0.519015
0.482066
0.442771
0.414149
0.388352
0.380419
0.361311
0.348164
0.34254
0.342582
0.344105
0.333251
0.335297
0.333416
0.33459
0.331115
0.668353
0.661557
0.66697
0.664784
0.663836
0.665336
0.665999
0.661848
0.656662
0.639658
0.634743
0.618635
0.595041
0.551582
0.520367
0.487415
0.441663
0.417944
0.389015
0.374194
0.352011
0.346926
0.341511
0.333854
0.333426
0.336608
0.336981
0.331964
0.336045
0.328178
0.665187
0.662788
0.660796
0.665119
0.664146
0.664259
0.665289
0.659361
0.643432
0.645812
0.635253
0.618086
0.585086
0.555869
0.521598
0.478441
0.441636
0.411121
0.389352
0.370623
0.359125
0.348021
0.342947
0.342454
0.339163
0.335096
0.332994
0.333524
0.338008
0.328271
0.664048
0.666607
0.671877
0.66624
0.6671
0.666094
0.659966
0.653612
0.652346
0.640446
0.629172
0.615493
0.585689
0.548652
0.516027
0.474723
0.445867
0.405853
0.386472
0.370632
0.362182
0.346901
0.341961
0.341784
0.335774
0.330143
0.335377
0.337677
0.342102
0.332536
0.66927
0.66573
0.660656
0.665509
0.665817
0.664064
0.661761
0.65393
0.65021
0.639417
0.629798
0.608286
0.578973
0.549259
0.519588
0.481682
0.438803
0.413199
0.391524
0.37324
0.353796
0.343923
0.336055
0.345033
0.335016
0.332288
0.33549
0.333306
0.331444
0.333623
0.669277
0.666987
0.671375
0.670031
0.667265
0.663998
0.655658
0.654363
0.648414
0.641413
0.634969
0.615378
0.580772
0.555192
0.522002
0.484994
0.438412
0.408053
0.391141
0.375958
0.3553
0.343057
0.339261
0.347396
0.333208
0.329601
0.34056
0.32939
0.328522
0.332582
0.658343
0.670863
0.670057
0.674917
0.664382
0.660195
0.659202
0.656127
0.643103
0.647763
0.62699
0.613323
0.598157
0.551796
0.523293
0.477324
0.444126
0.413549
0.393134
0.374455
0.356966
0.348815
0.339003
0.339816
0.336259
0.335796
0.330727
0.333287
0.330094
0.336687
0.664146
0.665731
0.669324
0.664905
0.660576
0.6625
0.661089
0.660092
0.647123
0.63796
0.626322
0.613276
0.586055
0.552951
0.527035
0.482491
0.43844
0.412586
0.392628
0.372657
0.358568
0.348054
0.347189
0.338114
0.336183
0.33546
0.32984
0.33543
0.338026
0.335971
0.673999
0.66563
0.669473
0.666544
0.668343
0.666934
0.659932
0.651221
0.652746
0.64024
0.6281
0.613826
0.584605
0.555153
0.524745
0.483586
0.436917
0.407422
0.390187
0.374606
0.361673
0.345906
0.338537
0.335154
0.339264
0.332456
0.341325
0.341253
0.331246
0.334263
0.663583
0.666016
0.667396
0.66211
0.666252
0.660271
0.664359
0.65726
0.648238
0.644993
0.634453
0.618144
0.582193
0.556978
0.524263
0.481494
0.439974
0.416476
0.393694
0.372157
0.354885
0.345983
0.344117
0.340668
0.339634
0.336046
0.339204
0.336503
0.335539
0.336243
0.666569
0.664482
0.666708
0.667296
0.664106
0.662618
0.662057
0.655645
0.650818
0.642675
0.630594
0.607387
0.583774
0.556246
0.522139
0.486005
0.448566
0.417153
0.392137
0.371864
0.360373
0.34649
0.339429
0.335759
0.335308
0.332369
0.337678
0.331349
0.330238
0.331777
0.661204
0.668991
0.656651
0.66233
0.667588
0.66599
0.656105
0.659143
0.649418
0.640037
0.627226
0.610041
0.589422
0.553238
0.514576
0.479257
0.437283
0.406577
0.38539
0.371309
0.355688
0.346912
0.33989
0.339695
0.339624
0.33205
0.336624
0.336117
0.340458
0.335216
0.665047
0.673188
0.662993
0.667784
0.670301
0.663758
0.662129
0.661099
0.656347
0.643098
0.631586
0.618887
0.586825
0.548728
0.517505
0.481172
0.445811
0.411781
0.387122
0.369171
0.356228
0.351802
0.34362
0.339098
0.331255
0.32919
0.337564
0.33314
0.337387
0.328879
0.672326
0.665819
0.659735
0.661477
0.669286
0.6649
0.66063
0.657301
0.65048
0.649987
0.624469
0.609934
0.587137
0.550485
0.521107
0.478151
0.438618
0.410693
0.386037
0.37267
0.357138
0.350927
0.336314
0.338579
0.335619
0.334076
0.335456
0.333616
0.335457
0.33457
0.671298
0.666714
0.667989
0.657848
0.659572
0.665719
0.654762
0.651162
0.650753
0.638122
0.623565
0.615402
0.582726
0.560165
0.520757
0.472897
0.442933
0.414574
0.386852
0.371831
0.357868
0.352645
0.343765
0.339071
0.336582
0.336249
0.336552
0.335297
0.33114
0.33994
0.666222
0.667472
0.668373
0.667644
0.667834
0.664222
0.656276
0.653019
0.653807
0.644869
0.628776
0.617496
0.583755
0.557473
0.521559
0.474306
0.444378
0.417748
0.388855
0.369985
0.354456
0.346433
0.342795
0.334359
0.339229
0.339201
0.331669
0.333285
0.336062
0.33317
0.664756
0.669002
0.665223
0.65873
0.662634
0.665177
0.660498
0.65734
0.646701
0.635241
0.625588
0.613819
0.588018
0.563862
0.516101
0.479813
0.445446
0.409726
0.387763
0.376436
0.357826
0.346384
0.343723
0.335353
0.332828
0.331176
0.338067
0.331869
0.334229
0.334447
0.666557
0.666434
0.665038
0.665872
0.661309
0.667406
0.658754
0.660792
0.654541
0.636937
0.626845
0.613835
0.580661
0.557414
0.519108
0.480499
0.450188
0.412374
0.387197
0.375354
0.367838
0.349526
0.341931
0.344567
0.338568
0.331394
0.337602
0.336548
0.331683
0.332351
0.669682
0.668175
0.671435
0.669079
0.662913
0.65873
0.663699
0.657175
0.652479
0.642643
0.635417
0.613766
0.582731
0.56064
0.514565
0.487368
0.448574
0.409379
0.385859
0.373804
0.355969
0.349771
0.347
0.338551
0.330135
0.331836
0.336095
0.337942
0.335951
0.335628
0.667437
0.666806
0.662872
0.664941
0.66177
0.660492
0.66359
0.657594
0.653415
0.643499
0.632062
0.610753
0.588941
0.55786
0.524989
0.480093
0.444391
0.407284
0.383325
0.363976
0.352197
0.350684
0.341297
0.336964
0.334234
0.336061
0.337069
0.337418
0.340833
0.332523
0.66086
0.662278
0.664449
0.668462
0.667358
0.66135
0.661764
0.655147
0.645214
0.643772
0.627528
0.607886
0.593069
0.559939
0.521871
0.478103
0.449783
0.412339
0.381808
0.358267
0.361619
0.349717
0.341483
0.335828
0.327122
0.334404
0.336121
0.334663
0.347202
0.330254
0.666643
0.666016
0.667166
0.667366
0.666842
0.659153
0.661172
0.652694
0.648646
0.639505
0.630727
0.611801
0.587215
0.56175
0.518511
0.479496
0.447987
0.414272
0.393576
0.369289
0.361374
0.346627
0.336249
0.336634
0.336303
0.336351
0.33385
0.330911
0.333854
0.338947
0.666179
0.664642
0.669225
0.666907
0.665956
0.663658
0.658369
0.658805
0.65375
0.640122
0.631244
0.610169
0.585518
0.555634
0.518015
0.484157
0.440269
0.40648
0.391084
0.368734
0.358369
0.347563
0.344099
0.342093
0.336678
0.333514
0.329605
0.334849
0.332076
0.333488
0.664679
0.663112
0.670098
0.670966
0.665859
0.667167
0.666308
0.660334
0.651857
0.646941
0.631907
0.610982
0.586122
0.551093
0.519136
0.477589
0.440728
0.407697
0.386635
0.362997
0.35502
0.345083
0.337604
0.342651
0.343678
0.339414
0.334296
0.330686
0.326163
0.333132
0.662486
0.672683
0.661554
0.661548
0.666822
0.666209
0.663456
0.652213
0.65616
0.639874
0.627587
0.614716
0.584179
0.558749
0.524144
0.485173
0.442254
0.40753
0.384445
0.369568
0.355241
0.348739
0.341313
0.337599
0.342861
0.342041
0.33605
0.333935
0.331038
0.333173
0.665409
0.664905
0.665429
0.661263
0.663884
0.663561
0.660622
0.654214
0.649757
0.63966
0.623573
0.603723
0.585725
0.55391
0.519861
0.478127
0.451551
0.41659
0.389837
0.365675
0.353846
0.354652
0.347163
0.340682
0.337217
0.339765
0.333626
0.330645
0.337276
0.336206
0.665305
0.669811
0.666673
0.66818
0.665413
0.662132
0.656484
0.651742
0.652687
0.642739
0.632407
0.615064
0.585708
0.554519
0.507689
0.471001
0.449538
0.413992
0.387566
0.374289
0.358618
0.347225
0.342253
0.337759
0.339998
0.331811
0.336071
0.335239
0.335873
0.333599
0.662611
0.664635
0.666853
0.664172
0.65905
0.662915
0.659226
0.652638
0.650803
0.646764
0.628541
0.614573
0.590696
0.554408
0.51937
0.47995
0.440187
0.404542
0.387934
0.371893
0.360203
0.348696
0.342248
0.343802
0.339303
0.338869
0.33647
0.33795
0.334599
0.329676
0.663441
0.665215
0.666712
0.660437
0.667311
0.660638
0.652336
0.655147
0.655584
0.648788
0.630909
0.61046
0.592752
0.557021
0.517053
0.48
0.444398
0.410377
0.385283
0.372818
0.35606
0.3468
0.346961
0.342387
0.339247
0.336969
0.337917
0.333624
0.331199
0.3275
0.673635
0.672129
0.669472
0.670301
0.667265
0.666528
0.659422
0.651841
0.653664
0.643634
0.630078
0.60799
0.590331
0.560862
0.522221
0.481376
0.443604
0.411134
0.381911
0.367616
0.354511
0.351666
0.341696
0.341118
0.339648
0.339095
0.333929
0.33009
0.331424
0.327509
0.663131
0.667723
0.671298
0.66765
0.665925
0.664477
0.661343
0.653776
0.655863
0.647044
0.625536
0.615075
0.589677
0.553933
0.524214
0.481861
0.438643
0.407706
0.390619
0.375588
0.356528
0.344154
0.345075
0.339685
0.338774
0.337247
0.335346
0.331868
0.327596
0.329294
0.661465
0.669308
0.669853
0.667087
0.664363
0.657701
0.659445
0.657647
0.645945
0.645585
0.626009
0.616628
0.586925
0.551419
0.525397
0.490975
0.446654
0.411858
0.389799
0.370404
0.350109
0.350023
0.345146
0.336373
0.339487
0.335062
0.333797
0.334114
0.338528
0.330302
0.669235
0.664888
0.6693
0.661998
0.67195
0.657575
0.660213
0.656935
0.652942
0.646313
0.625252
0.616913
0.593769
0.560302
0.513801
0.484313
0.446148
0.413469
0.388505
0.374157
0.356839
0.352409
0.338588
0.340698
0.33944
0.332842
0.330371
0.337225
0.339487
0.331533
0.666779
0.664749
0.673361
0.667178
0.662102
0.665341
0.665548
0.659917
0.652012
0.645545
0.635082
0.613419
0.59277
0.55477
0.513685
0.481533
0.445174
0.408001
0.382841
0.374249
0.356178
0.351081
0.346592
0.337716
0.339457
0.329502
0.328716
0.332144
0.333385
0.336823
0.663641
0.66567
0.666294
0.667347
0.66967
0.663555
0.659481
0.655165
0.650416
0.645613
0.628664
0.608369
0.58403
0.546343
0.519234
0.477922
0.437803
0.41264
0.388927
0.374304
0.359185
0.3509
0.342381
0.332501
0.336683
0.34144
0.334898
0.330269
0.333547
0.336333
0.665169
0.66563
0.668284
0.661892
0.665833
0.663672
0.659535
0.658297
0.653486
0.644407
0.635768
0.608336
0.581474
0.555274
0.515506
0.482533
0.445096
0.411256
0.391214
0.375659
0.354623
0.34725
0.33881
0.339018
0.34022
0.339287
0.337958
0.333684
0.336635
0.332989
0.672702
0.664916
0.666186
0.666293
0.663864
0.660755
0.66432
0.659502
0.647764
0.638329
0.630295
0.605076
0.578655
0.552895
0.514156
0.474822
0.442014
0.411657
0.390753
0.368948
0.353628
0.350042
0.34574
0.337912
0.338433
0.338963
0.334929
0.33394
0.340593
0.337529
0.663411
0.665668
0.665911
0.666134
0.660914
0.666097
0.660086
0.657637
0.654948
0.636083
0.625873
0.60514
0.584474
0.553461
0.517168
0.47858
0.439793
0.413336
0.383121
0.364605
0.35482
0.353032
0.345962
0.338909
0.338744
0.340974
0.337116
0.33534
0.339327
0.338355
0.669362
0.664798
0.663982
0.667033
0.663848
0.659774
0.657241
0.661655
0.645239
0.641756
0.628554
0.607563
0.585616
0.549962
0.514399
0.486541
0.447647
0.416664
0.385906
0.364996
0.353289
0.355145
0.342445
0.338679
0.339833
0.343321
0.336511
0.334075
0.335685
0.331795
0.662021
0.663828
0.659996
0.658991
0.666439
0.663514
0.662441
0.658137
0.648449
0.649445
0.634358
0.611627
0.58784
0.553244
0.521017
0.476798
0.443595
0.412497
0.388177
0.370048
0.358449
0.349644
0.340975
0.340848
0.335933
0.337499
0.332646
0.33766
0.327044
0.330859
0.668376
0.671945
0.671695
0.666728
0.665202
0.661018
0.661991
0.65535
0.650315
0.64075
0.630995
0.608358
0.585043
0.554788
0.522152
0.480376
0.444785
0.412209
0.387404
0.374966
0.355534
0.345258
0.341578
0.339554
0.336768
0.335042
0.331863
0.335345
0.329492
0.33201
0.670084
0.669043
0.663167
0.666243
0.665226
0.661793
0.659172
0.653492
0.651285
0.644707
0.627704
0.611319
0.588135
0.557164
0.513299
0.473517
0.444497
0.415449
0.388817
0.368864
0.3563
0.341579
0.345306
0.337198
0.338588
0.333731
0.330999
0.329448
0.339069
0.337226
0.662781
0.666215
0.657605
0.659935
0.668476
0.663072
0.655544
0.657998
0.652193
0.641112
0.63168
0.614718
0.586333
0.560361
0.513845
0.476229
0.436292
0.410875
0.392377
0.371777
0.355835
0.342914
0.3479
0.3417
0.336554
0.336536
0.333908
0.33525
0.330907
0.332035
0.666256
0.668163
0.66284
0.662788
0.657865
0.667473
0.661827
0.652207
0.648575
0.63662
0.628002
0.615656
0.587137
0.553662
0.518048
0.482492
0.442569
0.411012
0.385505
0.369631
0.360953
0.353584
0.349924
0.337894
0.337172
0.334906
0.330571
0.33859
0.335799
0.337861
0.666906
0.657768
0.66129
0.663922
0.663839
0.672296
0.665228
0.658819
0.649792
0.650737
0.634825
0.615934
0.59352
0.559037
0.520327
0.474035
0.441044
0.412336
0.392944
0.369295
0.361117
0.348315
0.345807
0.336542
0.332553
0.334616
0.326805
0.327361
0.331184
0.33031
0.668636
0.667262
0.665453
0.665504
0.665896
0.673421
0.660925
0.661347
0.648541
0.644831
0.632671
0.612125
0.590374
0.551842
0.517527
0.476213
0.439695
0.414164
0.389407
0.369473
0.355233
0.346535
0.347829
0.348324
0.338496
0.334588
0.323762
0.330159
0.338762
0.331439
0.667719
0.669579
0.668363
0.664258
0.665025
0.665481
0.657511
0.655711
0.650938
0.638465
0.627749
0.619091
0.591005
0.553823
0.519343
0.478288
0.443766
0.407413
0.383328
0.373629
0.358012
0.347099
0.343229
0.336906
0.334311
0.334938
0.335203
0.335702
0.333442
0.333339
0.670994
0.667018
0.668895
0.660863
0.660264
0.661932
0.658359
0.655618
0.658648
0.645683
0.624524
0.609524
0.585198
0.552906
0.514682
0.476819
0.441365
0.410857
0.385379
0.374343
0.361648
0.34783
0.341578
0.337246
0.334186
0.335839
0.33158
0.335519
0.335378
0.337749
0.663795
0.668445
0.669547
0.666155
0.66013
0.662388
0.65937
0.655574
0.656479
0.644048
0.633618
0.608704
0.589617
0.554921
0.522127
0.479288
0.442863
0.415314
0.387883
0.370943
0.355259
0.347186
0.341532
0.338274
0.334562
0.339436
0.334766
0.337756
0.334576
0.334219
0.661896
0.665812
0.667132
0.668667
0.662338
0.659644
0.661863
0.660982
0.658313
0.64442
0.630385
0.609609
0.59109
0.5567
0.523937
0.483049
0.447332
0.413224
0.391364
0.368013
0.358068
0.350033
0.341063
0.343748
0.334029
0.33495
0.327796
0.330754
0.336093
0.338751
0.66575
0.667366
0.668081
0.669475
0.668706
0.665214
0.655717
0.654483
0.656952
0.644053
0.628751
0.611655
0.584143
0.550933
0.51907
0.476107
0.442139
0.412121
0.389425
0.367275
0.358815
0.348966
0.343226
0.33568
0.340263
0.337457
0.334138
0.339541
0.333899
0.340116
0.666762
0.664072
0.668844
0.67032
0.668143
0.667511
0.662951
0.662169
0.652023
0.643719
0.62413
0.608436
0.58467
0.559232
0.522591
0.478691
0.437173
0.416492
0.388196
0.367808
0.352939
0.352548
0.344701
0.335794
0.337364
0.33696
0.33272
0.331809
0.329407
0.334341
0.661828
0.670495
0.663534
0.66072
0.664424
0.661768
0.663138
0.655891
0.647628
0.635008
0.628442
0.60585
0.581957
0.560516
0.517069
0.478659
0.440223
0.40973
0.382456
0.370758
0.352206
0.3478
0.341366
0.335603
0.335224
0.33442
0.330348
0.334553
0.330943
0.33166
0.665487
0.671285
0.667176
0.663482
0.664503
0.668131
0.666725
0.661136
0.658481
0.648378
0.625872
0.609394
0.591721
0.557681
0.523856
0.483922
0.444567
0.414512
0.382256
0.372145
0.354591
0.346354
0.343225
0.338626
0.336042
0.337637
0.33013
0.338159
0.331772
0.333789
0.659644
0.665557
0.666174
0.663996
0.667116
0.661741
0.662448
0.653978
0.648506
0.641038
0.625093
0.611399
0.585462
0.558524
0.517282
0.48136
0.442819
0.417517
0.389
0.369114
0.353736
0.354175
0.342606
0.336661
0.334489
0.333005
0.332714
0.335323
0.332708
0.332523
0.672604
0.667603
0.666724
0.662871
0.667562
0.665402
0.660536
0.6567
0.650461
0.635975
0.622604
0.609943
0.58437
0.563158
0.526124
0.482872
0.450204
0.420046
0.389035
0.365581
0.359341
0.350397
0.340389
0.341877
0.335885
0.332042
0.335105
0.337047
0.335356
0.335807
0.66663
0.666693
0.661788
0.663552
0.66782
0.659555
0.655543
0.658968
0.651683
0.641605
0.62985
0.611936
0.583161
0.555088
0.522323
0.481273
0.442586
0.411882
0.389867
0.373872
0.35143
0.342679
0.343695
0.345334
0.336956
0.333109
0.334112
0.330985
0.330353
0.331344
0.668374
0.662538
0.668473
0.665521
0.669206
0.662656
0.663319
0.663656
0.653677
0.642264
0.639498
0.623308
0.586179
0.557887
0.519428
0.482176
0.440186
0.417068
0.389423
0.369052
0.35688
0.344785
0.343364
0.333743
0.337253
0.336697
0.337184
0.33631
0.334839
0.331578
0.669966
0.671415
0.669611
0.661458
0.665136
0.665493
0.663167
0.660039
0.648475
0.64322
0.633466
0.617479
0.584146
0.555156
0.517486
0.48246
0.443477
0.41182
0.391238
0.36957
0.355856
0.348965
0.343987
0.337762
0.33535
0.338979
0.337565
0.338333
0.336089
0.336091
0.664563
0.666395
0.669819
0.668207
0.668402
0.662288
0.666236
0.650869
0.647698
0.641052
0.633775
0.621995
0.584483
0.555996
0.522514
0.491668
0.441574
0.414051
0.386953
0.366238
0.355889
0.35146
0.343157
0.340805
0.334934
0.337597
0.336184
0.336964
0.339246
0.339468
0.674449
0.669937
0.668396
0.660545
0.669998
0.656733
0.664723
0.657075
0.6469
0.642285
0.632424
0.614967
0.58802
0.559516
0.519273
0.483823
0.446722
0.414347
0.389648
0.376219
0.361235
0.354188
0.342405
0.342325
0.338113
0.336043
0.335955
0.332825
0.327003
0.329104
0.662133
0.667737
0.66263
0.666168
0.661956
0.660855
0.65986
0.655797
0.651095
0.648386
0.629034
0.613068
0.585429
0.557692
0.518766
0.482464
0.441524
0.410507
0.392502
0.372232
0.362149
0.348503
0.34649
0.336505
0.338114
0.333153
0.329838
0.335916
0.33354
0.335948
0.666655
0.6669
0.663722
0.66876
0.667114
0.663433
0.654905
0.659387
0.645789
0.643005
0.628907
0.617221
0.588491
0.557483
0.51967
0.483513
0.443215
0.40425
0.388122
0.370652
0.359955
0.352041
0.348509
0.334557
0.336585
0.33686
0.333787
0.33676
0.331141
0.335212
0.66578
0.663881
0.661955
0.664636
0.664749
0.660597
0.662408
0.65324
0.649556
0.650635
0.627553
0.614816
0.591963
0.552658
0.520678
0.485155
0.44326
0.403798
0.385312
0.373882
0.359591
0.344146
0.341066
0.336713
0.341279
0.335631
0.327443
0.338305
0.336937
0.32807
0.670236
0.666655
0.663984
0.660774
0.666597
0.666042
0.66301
0.656581
0.650723
0.645702
0.628285
0.611921
0.593728
0.554364
0.52094
0.484947
0.443979
0.415298
0.382807
0.361712
0.361793
0.349998
0.344416
0.341774
0.339331
0.336806
0.332446
0.333351
0.337242
0.332822
0.662644
0.663234
0.665155
0.665319
0.667403
0.661087
0.663101
0.656423
0.649846
0.64192
0.625865
0.613798
0.582066
0.559599
0.527807
0.483574
0.447637
0.415838
0.385438
0.369912
0.358652
0.345489
0.348391
0.341297
0.341906
0.338514
0.335037
0.333137
0.332698
0.333475
0.665541
0.668881
0.665758
0.662289
0.665756
0.661411
0.657114
0.660636
0.647952
0.635531
0.631382
0.615365
0.58388
0.555126
0.522401
0.48464
0.442621
0.411862
0.390961
0.369345
0.360945
0.352339
0.340064
0.339442
0.342683
0.33358
0.331807
0.334252
0.333527
0.331562
0.660512
0.664477
0.666415
0.666733
0.663987
0.670549
0.663044
0.658432
0.649913
0.639957
0.625509
0.611273
0.587
0.550958
0.52111
0.480404
0.443686
0.410605
0.386492
0.370448
0.356465
0.348563
0.339907
0.338726
0.33153
0.335091
0.330248
0.335196
0.338311
0.334092
0.667878
0.668675
0.664641
0.66346
0.669719
0.666005
0.66134
0.660189
0.650269
0.642244
0.629709
0.611688
0.581965
0.550116
0.51603
0.487796
0.441305
0.416315
0.389088
0.371025
0.354934
0.347477
0.339872
0.340463
0.33571
0.3307
0.333778
0.335925
0.3319
0.329827
0.661603
0.665525
0.669172
0.669229
0.663739
0.667752
0.664396
0.660543
0.647782
0.638769
0.624756
0.612683
0.584281
0.556188
0.521946
0.4808
0.446269
0.408267
0.385127
0.367529
0.352845
0.348132
0.339307
0.337292
0.337801
0.336259
0.334531
0.33439
0.329248
0.326853
0.661298
0.667797
0.664353
0.663297
0.668331
0.660871
0.655848
0.651954
0.652469
0.645667
0.630031
0.613335
0.585977
0.558486
0.520738
0.478824
0.451649
0.413609
0.390762
0.361054
0.354114
0.351027
0.34035
0.337245
0.335801
0.33211
0.335478
0.331068
0.333263
0.336919
0.665951
0.662346
0.668433
0.665162
0.665029
0.661033
0.666037
0.658981
0.650085
0.63784
0.629617
0.612163
0.582891
0.5543
0.517844
0.481848
0.453261
0.408213
0.389988
0.365921
0.358879
0.351597
0.347282
0.33834
0.339975
0.339978
0.333882
0.336452
0.332988
0.334346
0.663806
0.661187
0.66791
0.664667
0.661121
0.659541
0.660977
0.657417
0.658649
0.647524
0.632588
0.610079
0.580182
0.552053
0.51802
0.484256
0.443478
0.412647
0.387317
0.373339
0.358148
0.34798
0.344448
0.340366
0.339678
0.340275
0.331536
0.327059
0.33584
0.340033
0.665642
0.671066
0.667565
0.671909
0.66937
0.663048
0.661631
0.653807
0.652546
0.642331
0.633124
0.615351
0.583426
0.549521
0.517879
0.47716
0.445338
0.418045
0.384838
0.370699
0.3587
0.346833
0.34173
0.340787
0.336139
0.340279
0.335841
0.335629
0.33599
0.327903
0.664101
0.67287
0.662821
0.669118
0.666031
0.665477
0.65782
0.655009
0.654498
0.640507
0.628493
0.613752
0.587357
0.55209
0.520966
0.486286
0.448158
0.412906
0.387861
0.371129
0.356935
0.35233
0.341292
0.334454
0.337374
0.340849
0.335533
0.334786
0.33572
0.332966
0.669469
0.667673
0.664229
0.662675
0.663128
0.660267
0.665042
0.657226
0.653323
0.641317
0.628561
0.608564
0.588573
0.550935
0.520477
0.480878
0.443978
0.411153
0.391137
0.366372
0.359155
0.345206
0.34484
0.341299
0.338905
0.337374
0.335497
0.33461
0.336686
0.3319
0.662955
0.668175
0.66141
0.659817
0.665031
0.664179
0.659625
0.654737
0.654653
0.644087
0.628296
0.60519
0.582287
0.552536
0.513719
0.478436
0.446313
0.412061
0.386801
0.368482
0.359138
0.345637
0.3507
0.337037
0.335593
0.334304
0.33534
0.337937
0.328748
0.332953
0.660698
0.668029
0.668179
0.665499
0.658686
0.670087
0.662473
0.653624
0.648681
0.639885
0.625734
0.610668
0.584835
0.558003
0.515896
0.483493
0.442902
0.399862
0.390807
0.36966
0.357137
0.346975
0.340038
0.333785
0.335034
0.338708
0.338528
0.337941
0.334846
0.326967
0.662813
0.662662
0.664441
0.666448
0.66433
0.663344
0.663213
0.651269
0.647153
0.641951
0.627
0.604678
0.587142
0.547963
0.517638
0.482093
0.447508
0.41397
0.386069
0.372754
0.35622
0.346044
0.345362
0.339076
0.337335
0.334086
0.326327
0.334938
0.338429
0.33485
0.667465
0.664427
0.662379
0.665948
0.667967
0.66229
0.660705
0.654552
0.650532
0.637964
0.62701
0.605403
0.57826
0.554999
0.511063
0.477534
0.438105
0.420647
0.388233
0.369245
0.359132
0.347889
0.343264
0.343905
0.344559
0.340358
0.337413
0.335499
0.330378
0.338322
0.665082
0.665479
0.67099
0.667999
0.663278
0.665753
0.665114
0.65904
0.65244
0.641836
0.632391
0.612144
0.59031
0.55704
0.522913
0.480343
0.442132
0.41224
0.387054
0.365922
0.355494
0.348005
0.346998
0.341934
0.333288
0.330527
0.331496
0.334178
0.334869
0.331332
0.66384
0.663873
0.663331
0.66809
0.664102
0.666575
0.663905
0.657951
0.648776
0.64303
0.630923
0.614441
0.586704
0.54821
0.521806
0.484838
0.449554
0.412462
0.392178
0.374508