# vtk DataFile Version 4.2 
VTK output 
ASCII
DATASET STRUCTURED_POINTS 
SPACING 1 1 1 
ORIGIN 0 0 0 
DIMENSIONS 30 50 50
POINT_DATA 75000
SCALARS component:0:density float
LOOKUP_TABLE default
0.664834
0.67062
0.665411
0.662635
0.660136
0.664559
0.662332
0.656734
0.658429
0.646974
0.628327
0.61762
0.593764
0.561065
0.524075
0.481773
0.439647
0.417004
0.38027
0.372493
0.358462
0.350837
0.337666
0.339588
0.33523
0.333582
0.340808
0.334425
0.33933
0.33051
0.672558
0.663842
0.665696
0.672252
0.66609
0.664489
0.659934
0.658184
0.648132
0.644652
0.628553
0.613371
0.583959
0.561625
0.524515
0.482903
0.443868
0.415349
0.381322
0.369987
0.353736
0.345583
0.34481
0.342618
0.335364
0.333791
0.335279
0.329661
0.331645
0.33352
0.669984
0.66284
0.672175
0.668022
0.664187
0.658874
0.663367
0.654253
0.655289
0.642574
0.6277
0.611946
0.592306
0.549518
0.519849
0.479192
0.449798
0.407191
0.380151
0.366476
0.355235
0.350962
0.341924
0.328759
0.335567
0.336987
0.329778
0.326525
0.333633
0.328951
0.666107
0.66752
0.667524
0.668244
0.662343
0.663549
0.6571
0.654029
0.653866
0.641313
0.62988
0.608143
0.590959
0.558946
0.525372
0.481572
0.445729
0.408801
0.389991
0.37128
0.358748
0.347624
0.345133
0.338218
0.333354
0.342423
0.337383
0.332136
0.336214
0.335618
0.663691
0.671399
0.665688
0.660502
0.66262
0.659449
0.660342
0.650006
0.654099
0.643245
0.631477
0.606029
0.586785
0.558263
0.514523
0.477566
0.441101
0.412513
0.384088
0.369525
0.355443
0.352357
0.349097
0.338877
0.333857
0.340705
0.339148
0.333611
0.336416
0.336714
0.66426
0.668496
0.662385
0.667677
0.667592
0.664825
0.657328
0.658508
0.652702
0.637189
0.622841
0.610901
0.583713
0.556858
0.519561
0.47516
0.444541
0.414247
0.39276
0.373059
0.358764
0.35805
0.345301
0.349128
0.340585
0.338884
0.338772
0.331319
0.33661
0.331692
0.672404
0.664761
0.666843
0.666483
0.660721
0.663519
0.655313
0.661262
0.649064
0.646753
0.630065
0.614651
0.582939
0.558486
0.515663
0.478435
0.443416
0.40967
0.39036
0.368773
0.361329
0.346588
0.342569
0.343285
0.336435
0.341597
0.337879
0.335555
0.339041
0.333509
0.667298
0.664404
0.661931
0.669412
0.665492
0.666148
0.658823
0.653758
0.649603
0.637985
0.630044
0.613763
0.58753
0.555814
0.51811
0.480588
0.438827
0.411427
0.388023
0.369913
0.360504
0.347603
0.340251
0.342696
0.343944
0.335518
0.339345
0.333333
0.339394
0.33468
0.659763
0.665403
0.667067
0.666745
0.663827
0.66331
0.658539
0.658646
0.652767
0.643781
0.62892
0.608417
0.587798
0.561421
0.523481
0.477798
0.442247
0.406698
0.386306
0.366666
0.351978
0.34308
0.342295
0.342457
0.339785
0.335934
0.334291
0.334465
0.3351
0.337209
0.667469
0.659576
0.664699
0.671203
0.669417
0.666697
0.659989
0.659469
0.653027
0.640377
0.627347
0.605919
0.584407
0.561836
0.524219
0.480743
0.446891
0.409968
0.384051
0.364727
0.358782
0.342117
0.339857
0.338114
0.338
0.337625
0.334381
0.328997
0.332345
0.339333
0.664745
0.668828
0.666062
0.66546
0.65894
0.663687
0.656765
0.65836
0.655734
0.643664
0.626103
0.609828
0.585199
0.551786
0.513092
0.481865
0.442832
0.41379
0.388528
0.367714
0.354612
0.351461
0.341761
0.340202
0.340213
0.336371
0.333806
0.332649
0.331842
0.331478
0.661586
0.669398
0.669056
0.662227
0.66432
0.662555
0.665912
0.65348
0.653051
0.640337
0.63402
0.614079
0.590781
0.555795
0.521621
0.482229
0.4496
0.409745
0.389316
0.375809
0.357622
0.348142
0.344902
0.339972
0.341543
0.335798
0.326274
0.336401
0.337602
0.336435
0.674357
0.660677
0.663656
0.662302
0.669643
0.657677
0.669149
0.654871
0.650273
0.640098
0.632517
0.615037
0.58561
0.555856
0.52369
0.475323
0.44869
0.415415
0.390866
0.370688
0.359107
0.349588
0.350172
0.34038
0.335115
0.343368
0.332075
0.332968
0.337248
0.330453
0.667318
0.672794
0.667421
0.661595
0.662982
0.664486
0.667293
0.662246
0.652028
0.647236
0.628152
0.616953
0.583577
0.55189
0.510101
0.469336
0.442467
0.415212
0.388826
0.369415
0.36281
0.349535
0.34957
0.339235
0.334862
0.329891
0.332132
0.334012
0.341126
0.331397
0.661433
0.663388
0.666279
0.666498
0.665196
0.664629
0.663111
0.662617
0.648159
0.64222
0.631077
0.618329
0.593354
0.557722
0.5291
0.485026
0.444686
0.414644
0.386522
0.372373
0.36655
0.349683
0.334482
0.339504
0.334909
0.333896
0.337841
0.34036
0.336062
0.330062
0.666833
0.662542
0.668831
0.661623
0.671329
0.665063
0.661624
0.657441
0.656069
0.640451
0.631916
0.612971
0.58992
0.559489
0.527157
0.48096
0.434823
0.407786
0.386765
0.372185
0.358235
0.346407
0.345616
0.336557
0.331286
0.331044
0.33284
0.340491
0.33588
0.331228
0.670478
0.667114
0.671766
0.670037
0.664817
0.661699
0.655649
0.656357
0.650322
0.64365
0.63112
0.62056
0.588951
0.55709
0.509996
0.481026
0.446171
0.411214
0.388599
0.372535
0.353247
0.350726
0.342284
0.341955
0.339995
0.33107
0.331675
0.334942
0.333734
0.337139
0.664352
0.666366
0.662054
0.659376
0.668199
0.662457
0.657466
0.65711
0.656496
0.644401
0.622276
0.616058
0.584697
0.55707
0.512357
0.476954
0.439865
0.409478
0.389262
0.369834
0.362954
0.346245
0.343561
0.340368
0.343501
0.339793
0.330535
0.335076
0.336807
0.330715
0.671966
0.666531
0.669677
0.661855
0.662866
0.661114
0.659771
0.656725
0.652718
0.644515
0.628353
0.614971
0.58215
0.560566
0.516175
0.482805
0.44311
0.409294
0.389016
0.372837
0.352829
0.346147
0.339767
0.344389
0.333797
0.335164
0.338179
0.332683
0.33665
0.337023
0.671021
0.670832
0.661894
0.663758
0.668716
0.666168
0.656652
0.657644
0.652236
0.645698
0.62635
0.609402
0.583424
0.559877
0.512815
0.480122
0.440948
0.409253
0.384175
0.369472
0.357164
0.348675
0.344677
0.342695
0.339107
0.334592
0.332093
0.330525
0.335649
0.335822
0.669404
0.671763
0.670546
0.663255
0.666356
0.660583
0.666614
0.661477
0.655211
0.644512
0.623115
0.607588
0.585447
0.552916
0.515651
0.480832
0.445935
0.415312
0.385613
0.372777
0.358185
0.346236
0.342711
0.341008
0.336647
0.34148
0.336314
0.335947
0.331831
0.337247
0.666686
0.666823
0.672304
0.663111
0.663999
0.655109
0.657593
0.664226
0.651994
0.638708
0.628395
0.611376
0.585398
0.55114
0.509575
0.475182
0.443239
0.412464
0.387512
0.366763
0.359738
0.34806
0.340719
0.342133
0.335284
0.33198
0.342253
0.329771
0.327163
0.336113
0.663274
0.664647
0.664915
0.670061
0.675054
0.669452
0.661214
0.661618
0.654314
0.641585
0.631709
0.614422
0.584074
0.556177
0.512281
0.478822
0.44136
0.413872
0.388103
0.367924
0.363081
0.350196
0.342312
0.334999
0.333676
0.336146
0.331267
0.33535
0.337085
0.333035
0.664896
0.665374
0.667994
0.662906
0.667681
0.664346
0.657521
0.657631
0.648264
0.637795
0.625219
0.60896
0.576987
0.555063
0.51388
0.477254
0.442048
0.416315
0.3926
0.363164
0.35511
0.343774
0.342273
0.33758
0.341271
0.331476
0.33416
0.335875
0.331654
0.328722
0.661225
0.661697
0.662889
0.660433
0.664803
0.664174
0.662839
0.655137
0.649756
0.643356
0.625952
0.615815
0.584367
0.555142
0.513638
0.471213
0.449957
0.417465
0.385734
0.365377
0.357142
0.350279
0.341203
0.339152
0.33327
0.340116
0.333478
0.331874
0.332007
0.333897
0.669702
0.671175
0.669366
0.655194
0.658126
0.659646
0.659599
0.662619
0.653918
0.641097
0.631151
0.619634
0.587663
0.553573
0.518472
0.481851
0.443693
0.417177
0.387061
0.373398
0.361539
0.349785
0.342758
0.344584
0.335536
0.332823
0.334133
0.32788
0.33918
0.333037
0.665114
0.668647
0.664437
0.664237
0.657589
0.658658
0.654336
0.655284
0.65945
0.640488
0.624159
0.616002
0.585101
0.555187
0.520484
0.47952
0.443209
0.411988
0.387617
0.370428
0.358764
0.351384
0.342341
0.339962
0.338037
0.333408
0.334567
0.335598
0.338668
0.333691
0.663765
0.661458
0.671542
0.666274
0.666224
0.662954
0.657206
0.657896
0.65152
0.647232
0.635643
0.616189
0.584644
0.559434
0.525512
0.484727
0.450109
0.413836
0.3899
0.370312
0.363175
0.353658
0.343772
0.340348
0.34409
0.33514
0.338138
0.327467
0.33196
0.335315
0.663241
0.666672
0.665901
0.663847
0.664844
0.669577
0.664392
0.649258
0.648004
0.637006
0.629306
0.612892
0.591366
0.555756
0.52156
0.47757
0.446557
0.41457
0.388363
0.371004
0.361104
0.345581
0.340618
0.35278
0.342395
0.330922
0.334074
0.329732
0.333784
0.33799
0.673534
0.677315
0.664362
0.670337
0.664797
0.667075
0.659378
0.65736
0.653564
0.650067
0.627826
0.614467
0.590285
0.56159
0.5125
0.483868
0.441823
0.410309
0.393102
0.372329
0.356104
0.349372
0.347655
0.337197
0.339754
0.339208
0.337954
0.332173
0.33555
0.337133
0.662893
0.66335
0.66853
0.668812
0.667061
0.667142
0.663682
0.651372
0.650083
0.648727
0.624124
0.613541
0.590425
0.558626
0.520259
0.476992
0.44467
0.413014
0.389458
0.370885
0.364958
0.354432
0.344797
0.336811
0.331645
0.335238
0.332611
0.330847
0.330489
0.325388
0.660329
0.658586
0.663136
0.664884
0.659144
0.663396
0.662865
0.657501
0.658367
0.638485
0.630129
0.604242
0.592513
0.558261
0.517479
0.482593
0.446116
0.408312
0.391243
0.37109
0.360968
0.354157
0.347452
0.343312
0.341618
0.340938
0.332798
0.331426
0.326597
0.335037
0.656959
0.661435
0.664478
0.66937
0.668186
0.659931
0.661043
0.656996
0.656172
0.645098
0.624531
0.608273
0.589135
0.566055
0.522001
0.485365
0.445451
0.406285
0.38717
0.374037
0.360455
0.346599
0.335845
0.327422
0.332205
0.33195
0.334669
0.33076
0.328431
0.33473
0.661753
0.659841
0.664727
0.668104
0.65896
0.657313
0.664852
0.659914
0.653649
0.643609
0.625466
0.605414
0.584402
0.555987
0.521212
0.483307
0.447374
0.407461
0.37936
0.371851
0.353601
0.345171
0.342229
0.33441
0.340915
0.337123
0.3372
0.333834
0.335316
0.33852
0.666208
0.662158
0.670345
0.667103
0.664162
0.663624
0.664298
0.660065
0.648603
0.640932
0.632607
0.611216
0.586245
0.551594
0.519211
0.477047
0.438399
0.417124
0.386347
0.361648
0.35949
0.353059
0.342684
0.334899
0.334119
0.33284
0.338566
0.335045
0.332083
0.335061
0.659005
0.663714
0.667945
0.663678
0.663886
0.654503
0.667406
0.651874
0.6526
0.637565
0.632427
0.608078
0.589592
0.555114
0.52357
0.482351
0.443775
0.413094
0.387265
0.374234
0.357327
0.352637
0.342604
0.339997
0.337998
0.345814
0.332854
0.332154
0.331955
0.333491
0.671874
0.668177
0.667775
0.662791
0.668992
0.658965
0.659947
0.65379
0.654143
0.648485
0.632261
0.620907
0.583967
0.547445
0.517146
0.488722
0.442591
0.408463
0.384021
0.360194
0.354601
0.352556
0.34545
0.337723
0.343682
0.342424
0.330973
0.338074
0.333646
0.327803
0.669244
0.675665
0.669661
0.660393
0.662009
0.664873
0.658921
0.661505
0.654474
0.643478
0.628353
0.613411
0.58123
0.552358
0.517645
0.483512
0.445316
0.408215
0.38427
0.367637
0.356361
0.346217
0.342694
0.343528
0.348703
0.334858
0.334362
0.335718
0.336387
0.334579
0.663582
0.669574
0.666273
0.661825
0.663156
0.66368
0.658306
0.656983
0.650296
0.643007
0.630416
0.608971
0.57686
0.551233
0.518134
0.478398
0.448954
0.410195
0.383452
0.369616
0.354427
0.346826
0.341998
0.339939
0.339993
0.331822
0.334096
0.337306
0.331868
0.33421
0.671649
0.664714
0.661203
0.668411
0.667918
0.664995
0.661552
0.6601
0.65171
0.638217
0.63206
0.615133
0.588831
0.559772
0.524812
0.479574
0.451282
0.408437
0.390483
0.3721
0.36317
0.342158
0.342177
0.341
0.338245
0.334989
0.336904
0.336887
0.336543
0.334842
0.667929
0.666275
0.668789
0.670587
0.665709
0.668482
0.664012
0.660424
0.648315
0.642888
0.629899
0.612115
0.590286
0.553104
0.521342
0.480662
0.445396
0.412196
0.391625
0.3679
0.360868
0.354672
0.343554
0.342709
0.33904
0.337844
0.337501
0.340086
0.329712
0.330211
0.672149
0.667665
0.667116
0.662128
0.656809
0.666516
0.660751
0.655828
0.652622
0.643926
0.629387
0.61353
0.585243
0.55563
0.518193
0.477694
0.446853
0.414243
0.390259
0.372108
0.36029
0.351121
0.346776
0.336597
0.331875
0.329322
0.330636
0.331824
0.330258
0.333444
0.665762
0.663588
0.667749
0.66822
0.664892
0.666577
0.660772
0.656441
0.653713
0.644203
0.630281
0.61626
0.590092
0.550455
0.517418
0.480588
0.441061
0.412343
0.385763
0.364189
0.355941
0.353652
0.343423
0.335924
0.33677
0.325918
0.336416
0.32941
0.330818
0.331912
0.667912
0.663947
0.666596
0.661584
0.661135
0.664901
0.659517
0.655605
0.654786
0.640478
0.629351
0.613686
0.584449
0.549959
0.51944
0.483434
0.444558
0.410578
0.381521
0.369543
0.357935
0.34554
0.339562
0.336027
0.335307
0.336844
0.331234
0.335101
0.330894
0.334118
0.666849
0.667653
0.66494
0.659945
0.657567
0.65948
0.657512
0.658488
0.654713
0.641417
0.629465
0.609744
0.589491
0.551897
0.517479
0.47843
0.443461
0.414639
0.389343
0.371098
0.353012
0.344341
0.343715
0.341278
0.340056
0.339817
0.336291
0.33849
0.333355
0.332666
0.663231
0.664007
0.664079
0.667094
0.667545
0.665872
0.654656
0.65053
0.65182
0.649613
0.629199
0.613308
0.589228
0.548483
0.521956
0.480178
0.441454
0.409919
0.387364
0.374832
0.363214
0.344456
0.339013
0.336903
0.342866
0.338599
0.33236
0.336423
0.335759
0.333447
0.659065
0.66795
0.667291
0.667538
0.666432
0.663393
0.657783
0.659919
0.646405
0.640386
0.632851
0.61675
0.583665
0.551212
0.527854
0.487119
0.445839
0.411568
0.386037
0.370993
0.360252
0.344633
0.341668
0.339438
0.333972
0.330045
0.333063
0.33309
0.333528
0.336509
0.66559
0.664293
0.671444
0.667598
0.665381
0.66562
0.658126
0.6549
0.650551
0.641217
0.633592
0.613369
0.57889
0.560998
0.523968
0.485117
0.441924
0.416182
0.3887
0.36743
0.356743
0.346838
0.341247
0.342787
0.338701
0.329369
0.337081
0.335338
0.325883
0.336985
0.67081
0.664171
0.663529
0.668994
0.667439
0.66499
0.652021
0.651869
0.65142
0.642318
0.631335
0.610577
0.584454
0.555583
0.526556
0.481727
0.445338
0.416935
0.386086
0.368745
0.354537
0.353606
0.343998
0.343105
0.339046
0.336635
0.329058
0.333329
0.332793
0.336463
0.670172
0.668397
0.665864
0.66644
0.662714
0.66375
0.657734
0.656675
0.653767
0.642264
0.623724
0.609733
0.593215
0.555532
0.52159
0.480494
0.44282
0.416702
0.39061
0.372878
0.349389
0.349701
0.345842
0.336172
0.337945
0.342657
0.33359
0.335152
0.334432
0.331492
0.662569
0.669267
0.666913
0.670597
0.667222
0.663316
0.65524
0.653639
0.659328
0.642128
0.627218
0.605994
0.582139
0.548989
0.520872
0.480809
0.446467
0.417305
0.391615
0.374755
0.361497
0.347762
0.342729
0.332699
0.334299
0.340859
0.338436
0.336054
0.333063
0.330276
0.663922
0.662704
0.667639
0.669172
0.666574
0.665976
0.65863
0.653884
0.645538
0.640042
0.630049
0.618682
0.589088
0.559328
0.521837
0.476206
0.444481
0.41217
0.382128
0.375157
0.360485
0.342246
0.339241
0.336961
0.333608
0.335794
0.337474
0.33585
0.33518
0.333607
0.663741
0.663801
0.662603
0.66429
0.66234
0.661237
0.662202
0.653924
0.65081
0.641897
0.632211
0.613248
0.591255
0.554318
0.525686
0.473529
0.448095
0.407447
0.383727
0.373633
0.35981
0.349566
0.342036
0.337323
0.334577
0.33895
0.334859
0.328543
0.333081
0.334709
0.661912
0.663855
0.665765
0.66455
0.665711
0.667085
0.657944
0.657025
0.651836
0.638559
0.627842
0.613435
0.581424
0.559896
0.520838
0.481147
0.443839
0.413526
0.383559
0.371024
0.35918
0.348941
0.336964
0.335655
0.333588
0.339432
0.329008
0.332922
0.338955
0.334792
0.67002
0.669649
0.669625
0.660945
0.661249
0.658065
0.659937
0.659306
0.643379
0.642525
0.638025
0.603716
0.58933
0.564929
0.521234
0.483047
0.441207
0.416759
0.388043
0.370268
0.351795
0.343413
0.345569
0.340453
0.329003
0.331914
0.330445
0.334018
0.336866
0.335196
0.669397
0.670774
0.66478
0.660065
0.666585
0.664078
0.662826
0.666126
0.654901
0.644266
0.627411
0.607878
0.586481
0.554577
0.518241
0.478714
0.437424
0.415682
0.381469
0.367012
0.355074
0.350736
0.346639
0.340231
0.342594
0.338909
0.337805
0.336182
0.333018
0.329546
0.673825
0.662335
0.664975
0.667236
0.670226
0.666458
0.661132
0.656099
0.650694
0.648745
0.633227
0.613669
0.585811
0.558584
0.524278
0.477807
0.441343
0.411756
0.388476
0.369724
0.3583
0.349803
0.345213
0.337809
0.333114
0.33452
0.331376
0.339291
0.336627
0.326329
0.664713
0.666384
0.662879
0.667537
0.666069
0.660504
0.660331
0.658666
0.65098
0.639393
0.630185
0.619658
0.58451
0.553207
0.523705
0.480525
0.446523
0.413714
0.388835
0.37861
0.35934
0.351226
0.342095
0.340304
0.33719
0.335829
0.338831
0.341069
0.3336
0.331165
0.665622
0.668375
0.658862
0.662752
0.664608
0.665381
0.663196
0.662396
0.651203
0.640908
0.629969
0.610369
0.590209
0.554448
0.522951
0.481115
0.443052
0.418432
0.379679
0.364374
0.357354
0.347411
0.345618
0.342538
0.346747
0.337686
0.336652
0.33363
0.332352
0.324208
0.66411
0.664777
0.669313
0.669296
0.663483
0.669062
0.663237
0.66078
0.648516
0.643547
0.636802
0.606241
0.586594
0.565653
0.519443
0.477347
0.439916
0.412973
0.386747
0.367987
0.358722
0.344292
0.345009
0.345168
0.337773
0.338849
0.339551
0.336051
0.337009
0.329808
0.664559
0.673629
0.670849
0.666427
0.662595
0.66165
0.658855
0.657099
0.652847
0.648621
0.639362
0.613923
0.587622
0.559878
0.527415
0.478661
0.441984
0.415441
0.392997
0.370128
0.352981
0.347425
0.346373
0.340359
0.334594
0.334952
0.339
0.33521
0.329781
0.329654
0.66746
0.670728
0.668842
0.659937
0.663296
0.662239
0.661273
0.661054
0.651709
0.638508
0.63365
0.611588
0.585372
0.547687
0.518507
0.475812
0.440162
0.417488
0.38861
0.372466
0.361213
0.34947
0.339415
0.340486
0.33391
0.335083
0.33506
0.338595
0.331133
0.336121
0.67068
0.664623
0.668784
0.667335
0.659806
0.662716
0.660519
0.655743
0.649751
0.637309
0.627623
0.608139
0.582487
0.549197
0.515513
0.485199
0.438781
0.418329
0.388932
0.369842
0.354354
0.351079
0.344355
0.333232
0.341052
0.342919
0.336229
0.335723
0.328986
0.331265
0.666715
0.667866
0.664551
0.66197
0.66239
0.663652
0.659454
0.654621
0.647037
0.642461
0.625636
0.614105
0.585274
0.558539
0.518709
0.476228
0.438217
0.412863
0.385001
0.372434
0.357328
0.342473
0.338672
0.335548
0.344148
0.337323
0.335824
0.339152
0.334241
0.333876
0.667414
0.666997
0.67013
0.669426
0.665038
0.65526
0.656578
0.654348
0.651151
0.639263
0.629293
0.609618
0.582423
0.551836
0.516231
0.485248
0.439937
0.409844
0.38688
0.379374
0.361515
0.355152
0.340426
0.336341
0.33817
0.335215
0.336673
0.332091
0.33705
0.336496
0.669676
0.663711
0.663764
0.659569
0.664444
0.66119
0.656617
0.654441
0.654011
0.642253
0.631067
0.608495
0.587081
0.563251
0.513465
0.478383
0.444075
0.408183
0.388158
0.373903
0.356763
0.349612
0.346756
0.337969
0.335187
0.33591
0.338536
0.331433
0.330294
0.332125
0.666827
0.663266
0.669792
0.668763
0.660147
0.668925
0.668278
0.65865
0.643826
0.643994
0.634505
0.610583
0.58869
0.560177
0.518413
0.485312
0.446723
0.41444
0.387725
0.371716
0.359025
0.354392
0.343819
0.337846
0.336077
0.33345
0.342058
0.336178
0.332981
0.337877
0.669278
0.663851
0.662124
0.665009
0.664067
0.662275
0.660379
0.661113
0.647601
0.644219
0.630338
0.613216
0.585079
0.557577
0.515459
0.482856
0.443832
0.41582
0.395173
0.373257
0.359359
0.347353
0.344984
0.335564
0.334403
0.335786
0.334799
0.333708
0.332074
0.336779
0.668123
0.663175
0.661046
0.659175
0.657299
0.659124
0.660946
0.661512
0.649473
0.64013
0.630789
0.612624
0.583753
0.558246
0.519446
0.484999
0.446837
0.417057
0.38775
0.365637
0.358884
0.352359
0.338451
0.340607
0.338659
0.338026
0.331273
0.333001
0.332809
0.333229
0.668208
0.663595
0.666315
0.666164
0.659413
0.667534
0.659549
0.663422
0.649664
0.642878
0.637216
0.615275
0.582657
0.556123
0.521084
0.485753
0.438143
0.412271
0.388349
0.368999
0.354965
0.35067
0.344892
0.340435
0.338953
0.335811
0.337815
0.331914
0.335477
0.330048
0.668759
0.666366
0.670638
0.661716
0.660311
0.659437
0.663069
0.657432
0.647363
0.641324
0.630987
0.613233
0.585428
0.55558
0.518435
0.483107
0.44555
0.416344
0.395077
0.374186
0.356344
0.349256
0.345844
0.341263
0.338077
0.337829
0.330653
0.33253
0.335302
0.332506
0.665567
0.66745
0.662469
0.66131
0.661871
0.659292
0.658737
0.661373
0.646728
0.64317
0.625219
0.611607
0.580341
0.552923
0.520175
0.479849
0.439559
0.410541
0.386197
0.365289
0.354485
0.353083
0.33962
0.337439
0.340406
0.334229
0.331414
0.33079
0.333381
0.336336
0.664384
0.664492
0.665834
0.662143
0.661665
0.667891
0.663064
0.66066
0.64922
0.637801
0.632274
0.609584
0.59028
0.555977
0.516087
0.482
0.441057
0.415401
0.39569
0.369636
0.358408
0.349642
0.347504
0.337846
0.33934
0.340162
0.338291
0.337429
0.33319
0.335035
0.664952
0.665412
0.660626
0.65556
0.658091
0.665342
0.66024
0.658616
0.649293
0.643122
0.624427
0.604689
0.585016
0.551715
0.523105
0.487862
0.442305
0.406945
0.389229
0.368619
0.355616
0.346365
0.344698
0.34778
0.341273
0.337461
0.333877
0.336958
0.333296
0.336304
0.665025
0.664683
0.662943
0.664193
0.666834
0.663185
0.663691
0.66056
0.652818
0.646938
0.629602
0.610857
0.594558
0.557433
0.52057
0.483522
0.448389
0.41166
0.391764
0.371705
0.357407
0.357179
0.344717
0.34325
0.334483
0.329062
0.326529
0.332288
0.33737
0.336894
0.671984
0.668761
0.667692
0.664638
0.668507
0.663995
0.667138
0.662792
0.648726
0.644931
0.627778
0.610264
0.591423
0.554878
0.513736
0.48112
0.44119
0.419651
0.389919
0.371502
0.356074
0.352942
0.341062
0.341185
0.334379
0.32809
0.331964
0.33079
0.333517
0.330989
0.661519
0.662837
0.658815
0.664063
0.670268
0.664878
0.660196
0.659246
0.655538
0.643469
0.62791
0.611316
0.586105
0.556724
0.520856
0.479463
0.444029
0.414594
0.387597
0.367747
0.356081
0.349693
0.339109
0.336681
0.339869
0.331014
0.337892
0.335102
0.335466
0.334867
0.666898
0.662442
0.666497
0.661458
0.663263
0.664263
0.663856
0.662604
0.658965
0.640793
0.625032
0.610455
0.588593
0.550357
0.515669
0.481347
0.445105
0.414196
0.384378
0.371895
0.36531
0.347346
0.341897
0.328203
0.334335
0.328979
0.334849
0.333691
0.337849
0.334177
0.667063
0.670767
0.663414
0.661898
0.666277
0.657947
0.665845
0.660441
0.648298
0.644465
0.637299
0.618349
0.583792
0.551078
0.523029
0.477661
0.439294
0.418071
0.388642
0.367072
0.362728
0.347202
0.336652
0.339643
0.343076
0.335199
0.336918
0.330363
0.332861
0.333841
0.664802
0.666803
0.662876
0.66312
0.66447
0.658005
0.666377
0.65672
0.652177
0.636797
0.628289
0.61017
0.579712
0.554956
0.521619
0.485474
0.438577
0.411554
0.386108
0.374747
0.357961
0.352258
0.341611
0.337271
0.341223
0.338462
0.340801
0.335662
0.340207
0.336359
0.670456
0.66733
0.664201
0.661436
0.663779
0.662706
0.661508
0.65247
0.649791
0.645673
0.630562
0.611468
0.586334
0.555751
0.521237
0.486932
0.443842
0.409601
0.387188
0.371174
0.355945
0.351619
0.341132
0.34178
0.336732
0.332762
0.341648
0.332265
0.330828
0.330648
0.664155
0.664074
0.667057
0.665848
0.661626
0.665417
0.660625
0.659384
0.648176
0.641262
0.632489
0.609744
0.590864
0.558169
0.514828
0.480532
0.437195
0.416962
0.387362
0.363119
0.354062
0.349355
0.344919
0.341721
0.334051
0.333084
0.330726
0.334792
0.326787
0.332723
0.66904
0.66218
0.665547
0.662119
0.668334
0.664594
0.657963
0.662534
0.654785
0.64423
0.630506
0.613277
0.589758
0.555069
0.512041
0.476802
0.442112
0.414071
0.384042
0.365463
0.351288
0.350078
0.342574
0.33807
0.329559
0.330399
0.332005
0.334151
0.331931
0.338773
0.669441
0.665848
0.665467
0.6635
0.666768
0.660924
0.665034
0.66101
0.653363
0.649302
0.627487
0.607883
0.595716
0.553076
0.522353
0.480362
0.440732
0.412803
0.390948
0.376705
0.355763
0.344201
0.3355
0.336808
0.333008
0.333795
0.335301
0.330925
0.32865
0.328066
0.671304
0.666161
0.6705
0.665051
0.664514
0.663059
0.657269
0.652135
0.648862
0.649266
0.634137
0.60643
0.5896
0.551394
0.522424
0.482383
0.440104
0.412732
0.388643
0.369488
0.356553
0.349578
0.344281
0.337534
0.333416
0.331942
0.327416
0.331686
0.332536
0.334419
0.665074
0.667928
0.666802
0.663577
0.66328
0.662212
0.659353
0.656825
0.652913
0.640899
0.630579
0.611487
0.588113
0.55009
0.51993
0.483835
0.447567
0.415725
0.392868
0.375779
0.357249
0.350783
0.350873
0.337473
0.333649
0.335776
0.331854
0.331946
0.335965
0.335341
0.664183
0.663043
0.659876
0.664247
0.667438
0.664407
0.65882
0.653346
0.653556
0.638607
0.630544
0.616203
0.584464
0.555097
0.522932
0.484065
0.444121
0.414572
0.39164
0.370803
0.353985
0.347894
0.343931
0.338601
0.336123
0.339286
0.332418
0.332383
0.33783
0.333738
0.668892
0.666175
0.669426
0.665545
0.666712
0.664205
0.663912
0.655518
0.65224
0.642558
0.625722
0.613279
0.589404
0.552954
0.509694
0.474571
0.446059
0.412574
0.39043
0.374816
0.358972
0.349216
0.344604
0.341927
0.343744
0.342343
0.333029
0.328459
0.334002
0.33348
0.664525
0.667732
0.664109
0.661626
0.664111
0.656687
0.658334
0.654577
0.650763
0.641599
0.631315
0.610938
0.582843
0.55162
0.514451
0.479373
0.452063
0.420092
0.383919
0.374199
0.361015
0.344867
0.337535
0.339512
0.335596
0.340212
0.337444
0.336546
0.330841
0.332272
0.668776
0.668838
0.657468
0.66589
0.66722
0.657597
0.660407
0.658047
0.654995
0.637705
0.628474
0.6109
0.585013
0.558889
0.52235
0.484012
0.446133
0.416779
0.389845
0.372871
0.36242
0.339337
0.346457
0.335288
0.33696
0.332145
0.333873
0.331253
0.338161
0.337827
0.671171
0.669661
0.665816
0.667524
0.666072
0.668375
0.662371
0.654393
0.64929
0.643934
0.622844
0.612621
0.578524
0.552973
0.526919
0.486212
0.448054
0.405935
0.385226
0.366054
0.356677
0.350796
0.344172
0.343796
0.337037
0.334712
0.338641
0.337327
0.332065
0.333855
0.666456
0.67042
0.669938
0.66673
0.65898
0.662897
0.655515
0.656287
0.653397
0.646217
0.628613
0.611467
0.586731
0.554626
0.513905
0.480692
0.441854
0.411196
0.385321
0.366889
0.355031
0.348956
0.340336
0.339246
0.340303
0.331152
0.335101
0.334493
0.331261
0.330142
0.668581
0.666813
0.668336
0.665934
0.667095
0.661018
0.662664
0.655885
0.656797
0.647122
0.627944
0.613891
0.591882
0.559607
0.520373
0.476104
0.438679
0.410497
0.3871
0.362177
0.355412
0.355758
0.345476
0.338793
0.337435
0.333379
0.333583
0.334752
0.332892
0.33236
0.665474
0.666141
0.67013
0.669245
0.664392
0.661352
0.658922
0.656427
0.646544
0.64369
0.630512
0.608172
0.586237
0.552342
0.517654
0.480069
0.442779
0.411851
0.38066
0.360895
0.352343
0.347562
0.344347
0.340709
0.338077
0.330778
0.332197
0.342904
0.334292
0.334231
0.673108
0.663701
0.66927
0.668975
0.657432
0.662391
0.661364
0.65828
0.651678
0.640427
0.634107
0.609378
0.592346
0.554111
0.517699
0.483203
0.439451
0.409834
0.386116
0.367404
0.359846
0.34913
0.341893
0.340319
0.334306
0.33316
0.333712
0.338868
0.334206
0.334805
0.669425
0.661593
0.670497
0.669001
0.660887
0.664153
0.661436
0.65668
0.650188
0.649697
0.629176
0.608995
0.583809
0.550978
0.517078
0.479959
0.447048
0.413683
0.386648
0.370293
0.356991
0.347166
0.34463
0.335592
0.34466
0.341496
0.337356
0.340224
0.332016
0.335441
0.666328
0.665992
0.66682
0.664717
0.666969
0.66667
0.661189
0.66201
0.654168
0.647435
0.62828
0.616227
0.587877
0.557796
0.518173
0.482577
0.4473
0.41868
0.380003
0.36698
0.357223
0.347869
0.33959
0.337324
0.334449
0.339945
0.335905
0.332198
0.332648
0.333395
0.672273
0.663483
0.664869
0.661365
0.661166
0.662241
0.658369
0.661557
0.651211
0.645664
0.62866
0.615499
0.579698
0.552882
0.514986
0.476677
0.434875
0.40861
0.38498
0.366197
0.351853
0.348464
0.344638
0.341623
0.334528
0.338806
0.336295
0.331194
0.325821
0.336982
0.668561
0.663393
0.66297
0.665209
0.670166
0.664754
0.653244
0.654549
0.648667
0.638102
0.626028
0.61131
0.58281
0.55436
0.515722
0.480483
0.439738
0.406341
0.391992
0.372652
0.349199
0.349548
0.350357
0.340024
0.335882
0.337534
0.336222
0.33418
0.331594
0.338933
0.665365
0.668061
0.668386
0.666459
0.66169
0.665739
0.653617
0.658547
0.656441
0.647981
0.629694
0.611249
0.58998
0.562744
0.522146
0.480397
0.45567
0.4129
0.387024
0.368488
0.350169
0.353858
0.34742
0.334838
0.334342
0.332789
0.335217
0.334102
0.334998
0.336885
0.664165
0.665925
0.66827
0.671639
0.663608
0.667839
0.66119
0.659374
0.652466
0.642785
0.636911
0.614096
0.587966
0.553039
0.514808
0.480215
0.447714
0.410508
0.391183
0.370634
0.359893
0.353405
0.348202
0.336672
0.333687
0.336289
0.331152
0.330161
0.3338
0.331541
0.668971
0.667339
0.66263
0.669354
0.666328
0.664496
0.658588
0.660698
0.649104
0.637208
0.627489
0.621277
0.592729
0.559531
0.520841
0.478405
0.439089
0.411895
0.38529
0.371464
0.353154
0.346786
0.342314
0.333372
0.341128
0.33387
0.335901
0.334343
0.330696
0.332257
0.665214
0.665472
0.66189
0.662777
0.661708
0.663449
0.655543
0.659417
0.648704
0.642357
0.631274
0.612232
0.589689
0.554424
0.515617
0.481998
0.438395
0.41255
0.390716
0.371445
0.355204
0.350352
0.339353
0.342485
0.332512
0.334558
0.336844
0.334245
0.330559
0.335136
0.662979
0.659955
0.673801
0.667413
0.668503
0.66419
0.662597
0.658708
0.656194
0.642865
0.626212
0.61139
0.586817
0.547202
0.52431
0.479733
0.448934
0.418551
0.38533
0.370796
0.358327
0.347367
0.340263
0.336604
0.338991
0.33731
0.329086
0.332058
0.333745
0.333064
0.661519
0.670837
0.675014
0.672128
0.662297
0.655685
0.662905
0.658473
0.651559
0.647648
0.636663
0.614467
0.58324
0.552217
0.51884
0.481278
0.44537
0.413907
0.393308
0.373562
0.355948
0.345059
0.343676
0.341636
0.336157
0.3392
0.329946
0.336842
0.334395
0.337296
0.656439
0.667692
0.673702
0.670128
0.665395
0.662301
0.659208
0.656576
0.648453
0.64248
0.628745
0.612416
0.591636
0.549636
0.522611
0.481739
0.437605
0.414961
0.388497
0.368847
0.354942
0.345535
0.342467
0.339289
0.338197
0.337867
0.335257
0.337164
0.333612
0.333835
0.663423
0.660122
0.662028
0.665771
0.662739
0.665403
0.662344
0.659919
0.651766
0.647022
0.632458
0.611065
0.586898
0.552411
0.526433
0.485486
0.441859
0.410753
0.391134
0.370036
0.347608
0.346101
0.350231
0.342548
0.339862
0.340624
0.326696
0.333858
0.332307
0.328098
0.661516
0.664253
0.665566
0.665125
0.665723
0.664492
0.660807
0.654219
0.64663
0.642975
0.628322
0.612901
0.590323
0.551313
0.51853
0.469833
0.440188
0.409678
0.383316
0.375115
0.359916
0.35223
0.347535
0.342651
0.335812
0.335526
0.332271
0.329415
0.3364
0.327227
0.667554
0.665555
0.667245
0.663869
0.66632
0.666244
0.666477
0.654447
0.646738
0.640458
0.626855
0.612623
0.584768
0.546463
0.514606
0.479942
0.443856
0.416989
0.384832
0.375389
0.360403
0.343639
0.340462
0.345475
0.336824
0.340323
0.336099
0.328658
0.335162
0.331339
0.670142
0.664059
0.668082
0.663689
0.663588
0.668758
0.660769
0.656274
0.643918
0.637623
0.627173
0.608518
0.583197
0.555434
0.519584
0.482412
0.442438
0.406043
0.379526
0.372455
0.357537
0.348486
0.340364
0.344662
0.33529
0.338701
0.338545
0.333035
0.334064
0.333804
0.669011
0.662855
0.666972
0.663498
0.661386
0.658541
0.662856
0.654826
0.646806
0.640947
0.628329
0.608156
0.589934
0.558051
0.52327
0.48553
0.448851
0.410877
0.381897
0.364541
0.359677
0.353178
0.345614
0.337861
0.331198
0.340779
0.340412
0.336238
0.331885
0.32501
0.671625
0.665512
0.66744
0.667382
0.667842
0.658819
0.66323
0.657129
0.656475
0.64845
0.629885
0.611706
0.587819
0.554569
0.525998
0.479362
0.445381
0.41623
0.391012
0.371794
0.354943
0.351442
0.343765
0.341456