# vtk DataFile Version 4.2 
VTK output 
ASCII
DATASET STRUCTURED_POINTS 
SPACING 1 1 1 
ORIGIN 0 0 0 
DIMENSIONS 30 50 50
POINT_DATA 75000
SCALARS component:0:density float
LOOKUP_TABLE default
0.661272
0.668845
0.66435
0.672672
0.666733
0.665412
0.660252
0.655691
0.649607
0.645665
0.625853
0.610715
0.590004
0.562866
0.512486
0.488823
0.438009
0.413444
0.391745
0.374267
0.352437
0.350088
0.347441
0.336937
0.339384
0.324963
0.340071
0.340732
0.341432
0.329495
0.6698
0.671305
0.667943
0.670934
0.66163
0.661465
0.664734
0.657069
0.655093
0.642604
0.626911
0.612068
0.583639
0.554973
0.515478
0.478101
0.445694
0.41588
0.389107
0.370758
0.356611
0.34917
0.343919
0.328911
0.335005
0.333687
0.33708
0.334335
0.335127
0.33161
0.66861
0.671737
0.664802
0.664357
0.663251
0.66973
0.665058
0.648182
0.652697
0.642597
0.625182
0.61769
0.591276
0.558138
0.523314
0.475156
0.445604
0.413914
0.386078
0.369906
0.361985
0.351738
0.345747
0.338168
0.335476
0.33046
0.329955
0.331205
0.334709
0.329879
0.66301
0.660355
0.661182
0.666668
0.660889
0.66307
0.658488
0.656796
0.651865
0.643006
0.629662
0.6134
0.59291
0.557972
0.517059
0.47143
0.43973
0.410595
0.386502
0.369987
0.358144
0.351138
0.342102
0.337254
0.341593
0.334841
0.335858
0.336109
0.334326
0.334185
0.661356
0.664862
0.667435
0.667899
0.6628
0.664252
0.662007
0.655866
0.65687
0.644482
0.628932
0.618237
0.592574
0.556257
0.524158
0.487272
0.451046
0.414415
0.39088
0.371614
0.362832
0.346129
0.339542
0.331234
0.334159
0.338084
0.333594
0.331192
0.328722
0.336856
0.663158
0.661588
0.663551
0.660231
0.65959
0.673599
0.66275
0.656358
0.653559
0.640805
0.625586
0.606352
0.58546
0.557263
0.512871
0.481358
0.450286
0.407627
0.382948
0.367656
0.356047
0.345561
0.338857
0.339039
0.347076
0.339166
0.334184
0.338425
0.340286
0.33
0.668812
0.663162
0.670204
0.666408
0.666777
0.66604
0.661554
0.659969
0.648255
0.641272
0.621804
0.604939
0.587091
0.556031
0.521524
0.483149
0.44982
0.411763
0.384752
0.375544
0.356279
0.347203
0.345557
0.344261
0.338854
0.341667
0.333485
0.334072
0.331509
0.328386
0.669734
0.669104
0.669061
0.664657
0.66588
0.671146
0.665181
0.656521
0.653491
0.640861
0.628552
0.613033
0.587665
0.550533
0.523705
0.483525
0.445365
0.410445
0.384807
0.37062
0.354199
0.350395
0.343779
0.340085
0.326561
0.339575
0.33151
0.338242
0.331018
0.326621
0.663596
0.665255
0.664014
0.665935
0.664287
0.662381
0.665781
0.657258
0.658012
0.650691
0.634008
0.613501
0.585443
0.558399
0.522545
0.484553
0.44356
0.411027
0.387047
0.374015
0.361802
0.356067
0.337152
0.335473
0.338598
0.333633
0.333015
0.339913
0.332721
0.327854
0.667812
0.666933
0.6649
0.662292
0.662198
0.660459
0.659143
0.653594
0.648825
0.646647
0.633979
0.611225
0.583519
0.555188
0.518688
0.483472
0.447178
0.413326
0.392808
0.372385
0.36215
0.348543
0.346972
0.341894
0.339585
0.337447
0.338071
0.338983
0.329818
0.333582
0.659164
0.66124
0.665895
0.669789
0.665054
0.66617
0.661389
0.658512
0.64819
0.648764
0.628398
0.61475
0.586991
0.5518
0.527053
0.482725
0.446986
0.403856
0.382704
0.370458
0.357375
0.347073
0.342082
0.344958
0.338433
0.338175
0.337819
0.337361
0.33893
0.33535
0.664963
0.661904
0.662672
0.662586
0.664024
0.664129
0.656569
0.661039
0.649222
0.64686
0.63179
0.613463
0.587366
0.55101
0.522404
0.481161
0.442644
0.408518
0.381432
0.375837
0.355445
0.347887
0.336857
0.33568
0.34267
0.336473
0.330702
0.329611
0.334505
0.333593
0.665534
0.660585
0.664771
0.665436
0.660139
0.662335
0.660234
0.658173
0.656916
0.636924
0.631632
0.610524
0.59268
0.549801
0.516729
0.474513
0.443662
0.415357
0.385119
0.374049
0.365264
0.346235
0.352016
0.343238
0.334909
0.339569
0.33491
0.334387
0.334255
0.33122
0.664046
0.665454
0.662472
0.672026
0.664117
0.660852
0.664579
0.649165
0.646034
0.650128
0.636464
0.613347
0.58835
0.55427
0.517499
0.475973
0.440265
0.413006
0.384971
0.360883
0.35353
0.349608
0.338275
0.341015
0.337501
0.337769
0.335245
0.33583
0.331533
0.330767
0.664818
0.674091
0.666227
0.658114
0.666184
0.668028
0.656894
0.651202
0.64713
0.641605
0.629152
0.611972
0.589861
0.552775
0.519669
0.472592
0.438534
0.415987
0.395783
0.369983
0.353632
0.34391
0.342942
0.343054
0.3382
0.340002
0.337934
0.330419
0.340077
0.335265
0.67062
0.6689
0.668923
0.663404
0.665964
0.666621
0.659602
0.655066
0.653926
0.646492
0.632609
0.607404
0.587502
0.550235
0.527351
0.482158
0.440482
0.414663
0.386635
0.369136
0.356244
0.350028
0.334291
0.338173
0.343379
0.326851
0.331157
0.331335
0.340701
0.334687
0.666757
0.666651
0.659864
0.663663
0.660746
0.664946
0.662976
0.659921
0.657266
0.645267
0.633682
0.614888
0.583516
0.556487
0.518639
0.482013
0.441264
0.412999
0.389706
0.366343
0.35815
0.357479
0.338488
0.341524
0.342492
0.3392
0.329866
0.329272
0.3412
0.340373
0.664106
0.668641
0.659942
0.670176
0.659721
0.662371
0.661086
0.654251
0.654919
0.645613
0.637883
0.615069
0.594574
0.552659
0.505338
0.479817
0.438403
0.415982
0.386005
0.368407
0.359536
0.349825
0.344466
0.335608
0.334199
0.333468
0.330645
0.331186
0.333812
0.336593
0.66815
0.67042
0.662842
0.671891
0.668472
0.666868
0.65773
0.654568
0.64964
0.640554
0.629686
0.616594
0.594703
0.552487
0.519555
0.477241
0.443019
0.41365
0.380779
0.368203
0.358445
0.345184
0.339
0.34386
0.335389
0.334664
0.332503
0.331017
0.333329
0.333392
0.665623
0.664757
0.665157
0.659581
0.662635
0.662196
0.657326
0.656297
0.650072
0.64085
0.631883
0.6074
0.590761
0.547094
0.5182
0.475742
0.446367
0.42122
0.388164
0.36766
0.357375
0.347501
0.345893
0.340122
0.333859
0.332423
0.332574
0.336916
0.340791
0.331338
0.667043
0.665316
0.663567
0.666052
0.668246
0.665645
0.664713
0.660307
0.645049
0.638457
0.629679
0.610322
0.589832
0.559559
0.520532
0.475953
0.443647
0.40811
0.391909
0.367547
0.360324
0.350168
0.349893
0.336046
0.340007
0.339561
0.341302
0.340167
0.331061
0.330678
0.670265
0.667001
0.669138
0.670987
0.666043
0.660129
0.668093
0.66067
0.644982
0.638948
0.62888
0.610848
0.582905
0.562036
0.522907
0.481901
0.445517
0.415967
0.389393
0.368562
0.356292
0.342926
0.346691
0.342977
0.333827
0.330969
0.337481
0.331466
0.332945
0.325774
0.663952
0.671097
0.671317
0.663945
0.662425
0.659523
0.664798
0.658159
0.649683
0.639845
0.632266
0.617694
0.594477
0.558879
0.512252
0.473471
0.444967
0.412214
0.396617
0.372787
0.365689
0.343321
0.341221
0.344305
0.337885
0.338009
0.332076
0.331072
0.335429
0.333809
0.665862
0.672211
0.668071
0.665911
0.65688
0.66622
0.662075
0.658246
0.655246
0.643408
0.64149
0.608799
0.580241
0.55274
0.515974
0.482333
0.439349
0.409414
0.395972
0.374886
0.353793
0.350843
0.343084
0.340324
0.335879
0.336049
0.331217
0.335401
0.329201
0.325507
0.663572
0.662654
0.6687
0.661144
0.667385
0.670821
0.663864
0.652082
0.647552
0.638559
0.633234
0.616743
0.594993
0.554791
0.511893
0.479108
0.441539
0.410023
0.391452
0.369392
0.353383
0.351053
0.338098
0.338753
0.338811
0.333833
0.333213
0.334297
0.335751
0.340168
0.660713
0.661654
0.666755
0.663631
0.667666
0.664679
0.661382
0.654222
0.65192
0.641297
0.630124
0.614942
0.590596
0.552273
0.512563
0.481913
0.444713
0.409966
0.392523
0.376414
0.358332
0.353362
0.34342
0.341091
0.338515
0.334886
0.331041
0.334615
0.335026
0.338
0.666278
0.667848
0.666287
0.66634
0.665197
0.664575
0.659417
0.657131
0.653682
0.64361
0.633143
0.61172
0.586873
0.556782
0.520419
0.484399
0.448624
0.410362
0.387331
0.371328
0.355032
0.349662
0.337384
0.340064
0.340938
0.333897
0.331356
0.335474
0.336857
0.334301
0.668509
0.666393
0.670041
0.669745
0.664912
0.664947
0.667693
0.658057
0.659587
0.650259
0.633684
0.61436
0.581696
0.55336
0.519357
0.484296
0.447446
0.406413
0.388368
0.366757
0.355747
0.346211
0.34329
0.338473
0.334661
0.333642
0.333513
0.342801
0.341655
0.334503
0.662713
0.662471
0.666112
0.672884
0.671272
0.663714
0.662389
0.655089
0.65463
0.64271
0.62887
0.61367
0.591471
0.553775
0.528126
0.479958
0.442821
0.409898
0.392201
0.36839
0.360096
0.355765
0.341417
0.34636
0.334118
0.347264
0.338316
0.337187
0.336706
0.341127
0.670226
0.674834
0.665277
0.661768
0.66526
0.662329
0.663592
0.654306
0.65991
0.647418
0.63154
0.613893
0.581388
0.556811
0.516894
0.481581
0.445657
0.415964
0.389212
0.367222
0.355838
0.349903
0.339691
0.346162
0.339183
0.331573
0.335627
0.33515
0.326252
0.334325
0.669552
0.673121
0.663895
0.665473
0.658805
0.65267
0.661142
0.659625
0.653519
0.64256
0.627788
0.607782
0.587307
0.560994
0.514851
0.482905
0.453266
0.41212
0.382967
0.36875
0.359528
0.346158
0.344456
0.338626
0.336841
0.33484
0.331156
0.336898
0.3251
0.334961
0.667823
0.668289
0.665118
0.662071
0.659769
0.659148
0.658842
0.66038
0.651708
0.635846
0.61831
0.613759
0.586738
0.562753
0.519699
0.475971
0.443751
0.405588
0.384539
0.370359
0.357978
0.351466
0.341388
0.328259
0.337014
0.333262
0.332137
0.334568
0.33491
0.339529
0.663378
0.667442
0.666562
0.666302
0.666257
0.65807
0.658298
0.657729
0.649907
0.637912
0.627048
0.61522
0.590967
0.557555
0.51707
0.488201
0.439839
0.408087
0.385473
0.369452
0.362974
0.346854
0.336924
0.332141
0.331305
0.328718
0.334587
0.330361
0.337612
0.329068
0.667108
0.667091
0.671833
0.667322
0.666918
0.659856
0.658866
0.654859
0.653381
0.643168
0.632913
0.621003
0.594057
0.555573
0.513462
0.489261
0.450013
0.410728
0.38838
0.367005
0.357426
0.346182
0.349712
0.338552
0.338162
0.338992
0.343107
0.338308
0.335722
0.333128
0.67112
0.666768
0.660208
0.662868
0.66451
0.663889
0.65868
0.649592
0.654882
0.645287
0.633727
0.6134
0.583214
0.555399
0.516938
0.48184
0.438869
0.410319
0.387485
0.3747
0.358193
0.347545
0.338689
0.33924
0.33308
0.338742
0.339225
0.337573
0.336566
0.337704
0.664169
0.665158
0.662526
0.662571
0.664543
0.668223
0.661119
0.654069
0.656472
0.640469
0.629944
0.609323
0.584691
0.55705
0.520097
0.481704
0.441813
0.4154
0.387136
0.371169
0.358278
0.347132
0.338085
0.337774
0.332542
0.329265
0.328915
0.338699
0.335095
0.32618
0.667368
0.671196
0.666058
0.666835
0.666849
0.660512
0.65908
0.651968
0.652648
0.63885
0.631517
0.607306
0.585454
0.558571
0.521435
0.47655
0.443339
0.408235
0.386299
0.369413
0.361943
0.345502
0.33837
0.335288
0.339056
0.335536
0.332446
0.330179
0.331799
0.333868
0.664881
0.665157
0.664944
0.662141
0.669797
0.666025
0.659487
0.654326
0.657859
0.639606
0.631803
0.606406
0.583247
0.556414
0.521442
0.483186
0.449153
0.4181
0.390888
0.371202
0.357753
0.343067
0.34456
0.34394
0.33456
0.333269
0.336263
0.338755
0.335567
0.340408
0.673097
0.66685
0.670843
0.66357
0.668278
0.662917
0.659044
0.654619
0.650665
0.642841
0.629086
0.607088
0.583661
0.56588
0.520898
0.480727
0.444395
0.415278
0.389851
0.368209
0.35773
0.346291
0.350017
0.342589
0.338109
0.338848
0.3353
0.331697
0.333654
0.330556
0.66925
0.664895
0.662339
0.662561
0.667156
0.665302
0.661208
0.659034
0.652117
0.643245
0.626912
0.613654
0.594533
0.55588
0.517583
0.485388
0.442265
0.42066
0.386418
0.370718
0.356981
0.347623
0.348246
0.340652
0.343511
0.332768
0.335382
0.339088
0.334799
0.336571
0.666066
0.668496
0.666806
0.67141
0.664314
0.667367
0.667073
0.657015
0.650755
0.643512
0.63018
0.615266
0.590808
0.554573
0.520143
0.479702
0.446267
0.419068
0.388263
0.369107
0.355039
0.348066
0.348715
0.333814
0.328734
0.332798
0.33123
0.333503
0.325582
0.327612
0.667458
0.665902
0.660585
0.666799
0.665534
0.662181
0.658318
0.652994
0.647816
0.643006
0.62891
0.616513
0.590052
0.557907
0.524242
0.477102
0.445463
0.416689
0.391001
0.373069
0.354714
0.352879
0.343823
0.33755
0.332803
0.335792
0.338201
0.336859
0.330506
0.334005
0.668489
0.666877
0.669718
0.665637
0.664823
0.660304
0.659095
0.65537
0.652092
0.647256
0.629551
0.608723
0.580923
0.55236
0.520446
0.486164
0.443616
0.411978
0.386197
0.3633
0.351871
0.350537
0.342628
0.338397
0.338668
0.341496
0.335646
0.329047
0.332432
0.333981
0.667308
0.66503
0.664163
0.66457
0.65833
0.654562
0.65327
0.659618
0.65714
0.643402
0.629263
0.603708
0.586936
0.557828
0.517415
0.481965
0.448248
0.413522
0.386542
0.370559
0.350712
0.342398
0.339978
0.335492
0.335216
0.334142
0.336832
0.337726
0.340797
0.337359
0.666987
0.66905
0.665666
0.668544
0.659119
0.661063
0.660846
0.65391
0.653968
0.644633
0.630282
0.609151
0.588148
0.549444
0.51478
0.485744
0.448862
0.411844
0.385895
0.374786
0.35786
0.351943
0.352036
0.338406
0.333198
0.328976
0.338654
0.339529
0.332199
0.33038
0.666047
0.66646
0.661451
0.663055
0.663577
0.66417
0.65832
0.659603
0.654372
0.649976
0.63356
0.612576
0.584782
0.5446
0.523796
0.482501
0.445297
0.409963
0.384873
0.369083
0.356851
0.34459
0.346719
0.343178
0.337255
0.335783
0.334588
0.334347
0.33838
0.338934
0.668244
0.664129
0.673889
0.668163
0.668667
0.666075
0.662169
0.657363
0.647615
0.643872
0.628759
0.611285
0.583583
0.552807
0.514766
0.474752
0.442562
0.411009
0.382002
0.376352
0.360587
0.347803
0.346523
0.34053
0.339408
0.336046
0.336138
0.333945
0.333112
0.338312
0.667496
0.66703
0.666813
0.663984
0.658721
0.659963
0.663613
0.664586
0.649729
0.639774
0.628159
0.610538
0.581303
0.557455
0.521333
0.470649
0.446422
0.421023
0.390261
0.375252
0.360401
0.345797
0.344535
0.338484
0.334825
0.339781
0.334087
0.327772
0.329139
0.336078
0.663082
0.66934
0.669561
0.666975
0.663406
0.663036
0.654038
0.653874
0.647725
0.640361
0.632194
0.611103
0.590044
0.559538
0.526154
0.476308
0.443158
0.412937
0.384693
0.374093
0.364474
0.344543
0.341577
0.339527
0.335479
0.338776
0.332083
0.331493
0.332063
0.33548
0.666706
0.666547
0.671396
0.6683
0.663366
0.663609
0.668972
0.650416
0.641705
0.646674
0.627691
0.616533
0.584448
0.558699
0.51504
0.479643
0.451229
0.416857
0.390123
0.36915
0.349938
0.344708
0.334819
0.33971
0.343879
0.34407
0.336613
0.334609
0.33374
0.329706
0.667492
0.669558
0.6698
0.664113
0.666371
0.661836
0.657653
0.662698
0.653001
0.644243
0.626452
0.613246
0.587528
0.559906
0.518312
0.487938
0.444766
0.40627
0.386596
0.371507
0.358381
0.349838
0.335842
0.336269
0.330157
0.330579
0.335924
0.328674
0.333215
0.326816
0.667525
0.66875
0.667315
0.671063
0.660868
0.665353
0.661248
0.66092
0.649374
0.645751
0.630016
0.614595
0.584841
0.55722
0.522573
0.478918
0.440178
0.412929
0.388076
0.372892
0.35782
0.339845
0.339842
0.345062
0.348615
0.336062
0.336934
0.343067
0.335517
0.332257
0.670939
0.667212
0.662006
0.662418
0.666453
0.668121
0.657421
0.650089
0.654537
0.646154
0.626599
0.621202
0.591376
0.555045
0.523976
0.482901
0.443748
0.416415
0.392917
0.369682
0.358428
0.348973
0.343432
0.341245
0.340832
0.332078
0.332615
0.33101
0.330276
0.336287
0.665691
0.661347
0.662678
0.665489
0.666236
0.665856
0.661503
0.654718
0.6574
0.641957
0.629749
0.612165
0.588038
0.555178
0.517852
0.48166
0.445406
0.416943
0.388808
0.365616
0.355108
0.351915
0.34576
0.34779
0.341387
0.336056
0.335402
0.339814
0.33196
0.336864
0.667215
0.667645
0.66388
0.660666
0.667325
0.655417
0.657509
0.655971
0.652336
0.63697
0.62757
0.60766
0.582075
0.558032
0.520251
0.481275
0.445901
0.416737
0.38982
0.375505
0.362111
0.349751
0.346392
0.345518
0.337829
0.333826
0.328842
0.335735
0.331323
0.336696
0.67005
0.670047
0.667083
0.665503
0.660202
0.671174
0.662203
0.655976
0.653075
0.638644
0.628261
0.609164
0.586987
0.551601
0.521085
0.482381
0.444756
0.411686
0.393233
0.370227
0.357725
0.348675
0.342087
0.338591
0.337036
0.338803
0.328589
0.337804
0.342114
0.334519
0.669154
0.66635
0.667723
0.662982
0.663872
0.661584
0.656862
0.654944
0.651336
0.643657
0.627513
0.610933
0.591158
0.549679
0.518771
0.475763
0.437321
0.41186
0.397752
0.367006
0.357941
0.348041
0.344073
0.347451
0.338864
0.337915
0.340879
0.339555
0.336457
0.33392
0.666378
0.663283
0.666582
0.659325
0.662745
0.660466
0.656576
0.658442
0.65452
0.642493
0.6259
0.609931
0.590551
0.551353
0.521451
0.485596
0.442289
0.407458
0.385486
0.373205
0.358568
0.344808
0.341796
0.343498
0.337444
0.340272
0.337773
0.332885
0.334625
0.337046
0.666886
0.663479
0.663251
0.665363
0.658656
0.664376
0.657751
0.656383
0.653277
0.640037
0.632482
0.610685
0.587643
0.554018
0.520356
0.481204
0.439127
0.408291
0.38753
0.374292
0.354447
0.349508
0.345353
0.339142
0.341649
0.335521
0.336813
0.337868
0.338313
0.328144
0.666411
0.666116
0.665402
0.65953
0.663574
0.659038
0.660133
0.656445
0.653799
0.643822
0.634243
0.616463
0.586182
0.561454
0.521336
0.489523
0.440958
0.405286
0.386132
0.368237
0.354209
0.350664
0.345686
0.33848
0.342175
0.337067
0.333256
0.338148
0.326459
0.333806
0.666024
0.669902
0.674353
0.667499
0.665351
0.666023
0.663525
0.653351
0.648567
0.643076
0.626313
0.610979
0.58184
0.557805
0.519125
0.482132
0.447688
0.406369
0.383922
0.36588
0.355556
0.349768
0.342723
0.339928
0.33452
0.335702
0.333279
0.33473
0.332034
0.334046
0.66166
0.663651
0.663605
0.671092
0.66778
0.669471
0.663911
0.660897
0.648913
0.646457
0.629641
0.60839
0.588879
0.557666
0.5181
0.48062
0.44289
0.408642
0.388029
0.369372
0.357837
0.348696
0.340936
0.335208
0.339414
0.338781
0.333895
0.332316
0.334907
0.337397
0.66162
0.668993
0.664542
0.664835
0.669763
0.66433
0.660245
0.657313
0.65257
0.646511
0.631528
0.611706
0.592171
0.553527
0.514069
0.47574
0.445406
0.408198
0.385735
0.376087
0.370042
0.350017
0.348855
0.340731
0.337195
0.337246
0.334024
0.332397
0.333849
0.330051
0.664377
0.664582
0.665648
0.666128
0.664491
0.659626
0.658855
0.65609
0.650164
0.645927
0.632108
0.613826
0.587406
0.554641
0.516987
0.476841
0.443036
0.411202
0.383013
0.367641
0.363766
0.351305
0.338909
0.339492
0.336656
0.329333
0.333946
0.334686
0.344442
0.338184
0.667343
0.672162
0.672505
0.666682
0.662116
0.661405
0.662176
0.659897
0.657148
0.644898
0.624801
0.612954
0.592445
0.55645
0.519399
0.480914
0.440674
0.411759
0.389893
0.371502
0.36533
0.344126
0.342569
0.344965
0.339587
0.331749
0.333028
0.329823
0.343252
0.33474
0.668746
0.668851
0.663693
0.668431
0.663568
0.665399
0.663298
0.663213
0.649828
0.643109
0.628505
0.603368
0.591512
0.555728
0.528633
0.485749
0.448132
0.417746
0.38484
0.369811
0.355287
0.349229
0.341527
0.337404
0.342609
0.32884
0.332339
0.334115
0.333258
0.331154
0.665509
0.665602
0.661491
0.66501
0.665151
0.66186
0.657708
0.6586
0.652537
0.641934
0.631304
0.613004
0.585827
0.556309
0.521016
0.483863
0.445547
0.41508
0.387468
0.375133
0.359279
0.350635
0.343807
0.335466
0.338451
0.333667
0.326593
0.332077
0.338135
0.336375
0.670649
0.66796
0.661625
0.66418
0.669392
0.667142
0.653491
0.650694
0.653107
0.642814
0.634809
0.607633
0.582871
0.556183
0.518053
0.482088
0.442861
0.412683
0.388207
0.371523
0.357093
0.34965
0.349053
0.341587
0.339108
0.338343
0.327007
0.335606
0.326908
0.335907
0.666596
0.666068
0.66283
0.669963
0.665069
0.661819
0.655068
0.654288
0.654497
0.637757
0.63188
0.60799
0.580764
0.544924
0.518452
0.481332
0.446542
0.410612
0.388986
0.374163
0.362541
0.349609
0.343353
0.3397
0.334478
0.336457
0.331571
0.333077
0.329879
0.336854
0.666565
0.668116
0.670164
0.665703
0.664537
0.665366
0.659187
0.657494
0.65354
0.641346
0.63409
0.606249
0.589128
0.551361
0.515956
0.475284
0.445624
0.4199
0.386781
0.370845
0.352354
0.347858
0.33965
0.341939
0.332057
0.33535
0.340023
0.331453
0.33188
0.329705
0.66505
0.663434
0.666001
0.666339
0.664312
0.660353
0.661924
0.65868
0.648918
0.646689
0.629196
0.611954
0.585865
0.54941
0.51865
0.467537
0.434225
0.410022
0.390252
0.376131
0.355438
0.35278
0.34135
0.343734
0.339853
0.333408
0.343608
0.334345
0.333997
0.337902
0.665615
0.670478
0.668095
0.665604
0.662789
0.658831
0.662035
0.654401
0.649531
0.642421
0.628571
0.610786
0.584973
0.553062
0.519237
0.476773
0.439337
0.4116
0.385247
0.373419
0.356672
0.351832
0.337813
0.337708
0.342994
0.339321
0.335488
0.336049
0.336659
0.332826
0.666987
0.669175
0.665944
0.660545
0.659565
0.662676
0.660366
0.658942
0.65035
0.646177
0.635398
0.614715
0.589969
0.558219
0.515112
0.485702
0.448707
0.412163
0.385029
0.367082
0.356556
0.34447
0.340556
0.338192
0.328729
0.335216
0.331628
0.339879
0.339572
0.336999
0.667876
0.667702
0.667721
0.662205
0.660899
0.662974
0.660606
0.661242
0.654542
0.640474
0.628276
0.609363
0.581561
0.553163
0.517218
0.485837
0.444988
0.415365
0.388764
0.369095
0.352828
0.349609
0.344539
0.339838
0.332635
0.340707
0.33154
0.334244
0.328973
0.325445
0.666339
0.666511
0.660587
0.655906
0.666296
0.661377
0.664172
0.657188
0.652994
0.644952
0.630055
0.617381
0.590533
0.555636
0.520966
0.483528
0.44854
0.410481
0.386752
0.37085
0.363147
0.35691
0.344313
0.343525
0.336805
0.33515
0.32947
0.331164
0.333808
0.329237
0.665806
0.665952
0.664615
0.664073
0.666744
0.6635
0.666418
0.656834
0.650926
0.642647
0.627909
0.611701
0.588207
0.545986
0.517633
0.476136
0.44479
0.40845
0.385448
0.372501
0.356075
0.348673
0.343454
0.338309
0.334893
0.335667
0.330787
0.332707
0.331519
0.331391
0.665378
0.668165
0.660048
0.666781
0.666935
0.664004
0.670899
0.658969
0.649486
0.642278
0.626483
0.60449
0.575603
0.551034
0.526003
0.485099
0.445588
0.412798
0.389216
0.371859
0.357441
0.352592
0.342913
0.338601
0.335805
0.336697
0.331832
0.332
0.335438
0.330631
0.665984
0.662863
0.65923
0.666386
0.66132
0.660918
0.659749
0.653471
0.6467
0.639753
0.632474
0.61035
0.58397
0.55278
0.515431
0.479454
0.442926
0.414545
0.390005
0.371042
0.361627
0.35565
0.340187
0.3322
0.338297
0.333995
0.336862
0.334976
0.333274
0.331624
0.670492
0.665907
0.667859
0.669639
0.659954
0.666097
0.662674
0.657736
0.651379
0.642416
0.634552
0.61411
0.59044
0.554857
0.523724
0.47708
0.443302
0.41294
0.392907
0.368988
0.357946
0.355072
0.343349
0.337787
0.336545
0.337048
0.339828
0.332026
0.333246
0.338413
0.66338
0.665413
0.663422
0.662255
0.662518
0.67044
0.66195
0.658445
0.656013
0.645092
0.62716
0.60826
0.588016
0.552648
0.516902
0.484753
0.438841
0.407625
0.386402
0.36649
0.360741
0.346247
0.342186
0.336378
0.335518
0.327158
0.33271
0.337287
0.333595
0.335606
0.663395
0.664415
0.67086
0.663244
0.657772
0.664798
0.662673
0.657324
0.652831
0.637388
0.626341
0.608488
0.589305
0.556977
0.518613
0.479671
0.448676
0.40851
0.385509
0.368195
0.363612
0.344831
0.337941
0.336562
0.340996
0.338821
0.33206
0.332591
0.328368
0.331297
0.666888
0.66219
0.663102
0.666232
0.66544
0.66112
0.664725
0.662353
0.649819
0.639195
0.631743
0.616565
0.589984
0.551712
0.515942
0.476165
0.445934
0.41703
0.393163
0.366451
0.353688
0.350392
0.338743
0.345704
0.337596
0.337041
0.329034
0.333995
0.335196
0.334887
0.664072
0.667061
0.655932
0.663561
0.664772
0.661642
0.66342
0.661181
0.652289
0.640144
0.631128
0.614172
0.586018
0.559895
0.521848
0.477025
0.445959
0.413306
0.386322
0.364361
0.358246
0.352672
0.342106
0.342445
0.333717
0.340109
0.333061
0.334219
0.333561
0.335543
0.671079
0.669347
0.666906
0.663154
0.664381
0.659617
0.658425
0.662863
0.657076
0.637447
0.62852
0.61375
0.587658
0.557914
0.51941
0.477198
0.44833
0.420483
0.390304
0.376271
0.358436
0.350173
0.347028
0.344274
0.33734
0.338845
0.333193
0.333277
0.333621
0.336363
0.669674
0.667272
0.668718
0.666504
0.665311
0.666296
0.665834
0.653012
0.648414
0.643305
0.631323
0.615594
0.581287
0.556363
0.513985
0.479189
0.449751
0.417567
0.384862
0.370024
0.365134
0.347109
0.336474
0.336133
0.329905
0.332685
0.335931
0.332992
0.336257
0.331875
0.668017
0.668576
0.670559
0.663178
0.658233
0.66075
0.662761
0.654536
0.649923
0.641803
0.625813
0.608682
0.586251
0.555485
0.524097
0.483217
0.444572
0.406604
0.383083
0.370031
0.358899
0.342086
0.337149
0.341177
0.337176
0.333135
0.333961
0.337136
0.329385
0.328084
0.662192
0.665504
0.665698
0.664845
0.664159
0.659966
0.655447
0.654216
0.65164
0.64234
0.629178
0.612093
0.585075
0.550411
0.521099
0.477159
0.448325
0.41074
0.392955
0.367353
0.355793
0.343478
0.345074
0.332528
0.337936
0.338947
0.336897
0.336174
0.338234
0.335908
0.664439
0.665591
0.668541
0.665076
0.665872
0.661083
0.66323
0.65475
0.651211
0.644575
0.626723
0.612639
0.580288
0.546295
0.518821
0.481436
0.441699
0.413856
0.390038
0.370005
0.354311
0.347451
0.35028
0.340313
0.336518
0.338756
0.337392
0.340739
0.340598
0.331572
0.669191
0.66848
0.6708
0.661784
0.663678
0.658042
0.660668
0.655424
0.650874
0.64117
0.623394
0.610887
0.591707
0.553837
0.515309
0.473419
0.444311
0.413586
0.388838
0.37034
0.356002
0.349362
0.345335
0.34275
0.329884
0.335441
0.33659
0.336113
0.334508
0.335287
0.669899
0.667212
0.663802
0.664134
0.6671
0.671864
0.660112
0.655894
0.656304
0.64403
0.624127
0.607565
0.585777
0.55071
0.523973
0.486054
0.444704
0.412248
0.384929
0.376561
0.361234
0.352453
0.343379
0.338731
0.333584
0.336705
0.337501
0.335391
0.334028
0.334952
0.662499
0.666961
0.667789
0.667011
0.669415
0.666055
0.659836
0.659394
0.65101
0.641483
0.632573
0.611653
0.590644
0.554268
0.519574
0.477705
0.449947
0.412969
0.389052
0.376429
0.364996
0.348733
0.340298
0.336824
0.335688
0.338079
0.331589
0.333199
0.331261
0.329876
0.670554
0.667795
0.664696
0.669005
0.668647
0.669514
0.663987
0.666139
0.654689
0.646374
0.62519
0.608509
0.58692
0.559361
0.521199
0.483281
0.435962
0.411963
0.387636
0.366834
0.35878
0.341905
0.350578
0.339388
0.334676
0.337035
0.339882
0.331722
0.329868
0.329377
0.66304
0.666338
0.67043
0.664684
0.664732
0.662802
0.662862
0.653887
0.650334
0.639832
0.632143
0.610575
0.592796
0.557698
0.520111
0.482003
0.445387
0.41059
0.387742
0.366857
0.354778
0.342419
0.349763
0.333374
0.336415
0.339769
0.337375
0.336903
0.335681
0.335639
0.670573
0.671462
0.667639
0.658951
0.662522
0.666146
0.663283
0.659619
0.647674
0.640705
0.629359
0.613086
0.58466
0.551435
0.515995
0.479473
0.440229
0.411251
0.387775
0.367085
0.355116
0.344275
0.342081
0.338832
0.335827
0.339451
0.337405
0.337356
0.332659
0.332308
0.666707
0.663475
0.668159
0.661755
0.6595
0.657186
0.66065
0.659391
0.650239
0.645791
0.631085
0.616391
0.595011
0.553219
0.516725
0.488285
0.442225
0.406194
0.385617
0.367559
0.354063
0.351644
0.343711
0.330538
0.341196
0.33046
0.33501
0.330779
0.328953
0.331983
0.661685
0.657882
0.66674
0.663967
0.663889
0.663541
0.663846
0.652669
0.651292
0.644549
0.629303
0.60538
0.586643
0.554289
0.523531
0.480193
0.442005
0.406731
0.383429
0.368868
0.359259
0.349208
0.344723
0.337881
0.337869
0.334963
0.337002
0.338494
0.331297
0.328255
0.671747
0.659988
0.665419
0.661757
0.663027
0.662544
0.658453
0.653221
0.648773
0.644427
0.63916
0.618837
0.59057
0.557801
0.515104
0.479953
0.443506
0.417008
0.380752
0.363881
0.358182
0.348099
0.345444
0.340993
0.330812
0.334625
0.343893
0.335622
0.340076
0.334903
0.66803
0.661797
0.664038
0.665141
0.660048
0.661139
0.663781
0.661643
0.653234
0.642694
0.629257
0.604861
0.579513
0.554349
0.520287
0.482954
0.439161
0.418101
0.391836
0.373476
0.357157
0.345271
0.343503
0.337221
0.334477
0.337799
0.339894
0.333672
0.338526
0.331238
0.667583
0.666007
0.666533
0.669814
0.664161
0.664242
0.655883
0.653894
0.653304
0.641429
0.633575
0.608772
0.59006
0.558615
0.524587
0.483725
0.450032
0.414679
0.387304
0.372077
0.35825
0.352587
0.340057
0.340186
0.330938
0.335964
0.336136
0.333076
0.335124
0.330929
0.668114
0.665591
0.670639
0.671449
0.670719
0.656975
0.658472
0.655394
0.646532
0.646022
0.629768
0.609041
0.580375
0.560127
0.519113
0.47401
0.443479
0.408605
0.386341
0.362403
0.352969
0.343902
0.342263
0.345916
0.334532
0.335876
0.337064
0.335088
0.331956
0.331082
0.665105
0.664534
0.670807
0.65527
0.6637
0.66226
0.661969
0.652663
0.650082
0.644234
0.631116
0.613084
0.582534
0.561564
0.521488
0.484486
0.451674
0.414716
0.389286
0.369019
0.364022
0.351038
0.34273
0.334877
0.338949
0.336588
0.33493
0.332179
0.33158
0.335213
0.665959
0.661547
0.667626
0.66884
0.661852
0.663948
0.658205
0.651395
0.646677
0.641905
0.626803
0.612403
0.58872
0.560091
0.524629
0.481022
0.444091
0.410843
0.38571
0.367432
0.355981
0.347417
0.340827
0.337876
0.342972
0.332592
0.332178
0.333933
0.335304
0.332721
0.665451
0.667127
0.666326
0.665911
0.66428
0.663987
0.665427
0.652398
0.648073
0.641792
0.631033
0.615188
0.5822
0.557546
0.517968
0.484536
0.445716
0.416307
0.387051
0.372067
0.356839
0.34441
0.346588
0.339771
0.337482
0.338493
0.332778
0.32867
0.332925
0.332206
0.669953
0.665876
0.669742
0.668169
0.660501
0.661631
0.663379
0.656645
0.652642
0.645478
0.634632
0.611299
0.580253
0.559378
0.51375
0.48098
0.445219
0.414942
0.384614
0.366563
0.355913
0.3501
0.341963
0.336788
0.333463
0.337323
0.337311
0.333776
0.329247
0.335834
0.667339
0.67552
0.667563
0.664732
0.66667
0.662378
0.66694
0.659972
0.65286
0.642632
0.627527
0.610974
0.585127
0.559484
0.515198
0.477999
0.449187
0.418102
0.390214
0.366114
0.351111
0.349558
0.341863
0.342062
0.333995
0.332835
0.337625
0.331402
0.336641
0.336078
0.668811
0.667471
0.671111
0.665546
0.661123
0.65995
0.652758
0.655002
0.655219
0.648469
0.631594
0.611334
0.586672
0.543172
0.515676
0.477807
0.447335
0.417609
0.39436
0.372183
0.357107
0.3522
0.343331
0.342818
0.341689
0.339354
0.336542
0.337867
0.339598
0.32749
0.663203
0.66182
0.673545
0.664477
0.665234
0.663862
0.658497
0.653781
0.653396
0.649169
0.633345
0.606852
0.586606
0.552108
0.52297
0.47339
0.437034
0.409005
0.389525
0.369849
0.357618
0.347562
0.344891
0.340599
0.337297
0.333594
0.335842
0.33854
0.337403
0.331108
0.668429
0.669788
0.667496
0.662033
0.659403
0.66401
0.657335
0.657899
0.651242
0.639992
0.629017
0.611492
0.589998
0.55265
0.518017
0.481369
0.438053
0.41361
0.382776
0.365413
0.355702
0.350513
0.340416
0.33769
0.333191
0.336383
0.334288
0.328715
0.328659
0.32805
0.667551
0.666942
0.670877
0.662508
0.660313
0.672697
0.662945
0.660689
0.647661
0.640199
0.629723
0.605033
0.589724
0.561799
0.518653
0.471671
0.435917
0.413941
0.388052
0.369535
0.359349
0.355201
0.344032
0.34193
0.33253
0.335403
0.339107
0.326985
0.333854
0.329036
0.67263
0.670809
0.666462
0.666268
0.663641
0.667138
0.660515
0.65842
0.649192
0.637223
0.630739
0.615027
0.584666
0.553784
0.514671
0.478637
0.437276
0.41658
0.386392
0.367225
0.354098
0.348555
0.340608
0.341966
0.337037
0.337828
0.33508
0.32647
0.333101
0.330185
0.669641
0.67237
0.665119
0.662923
0.661949
0.661042
0.663204
0.649394
0.640843
0.635546
0.630321
0.613481
0.582678
0.554301
0.520844
0.479906
0.439027
0.416491
0.389962
0.37029
0.357626
0.352655
0.344193
0.341307
0.333764
0.33146
0.334288
0.332343
0.336346
0.334142
0.666459
0.668564
0.659048
0.668267
0.664017
0.663033
0.660394
0.656986
0.650128
0.648946
0.630527
0.609478
0.584947
0.552465
0.522879
0.480353
0.453555
0.417535
0.393788
0.375301
0.356136
0.347512
0.340349
0.338064
0.339282
0.335818
0.330323