# vtk DataFile Version 4.2 
VTK output 
ASCII
DATASET STRUCTURED_POINTS 
SPACING 1 1 1 
ORIGIN 0 0 0 
DIMENSIONS 30 50 50
POINT_DATA 75000
SCALARS component:0:density float
LOOKUP_TABLE default
0.66725
0.662498
0.666233
0.664629
0.660403
0.66549
0.663435
0.656858
0.654564
0.637563
0.630284
0.617667
0.591068
0.557214
0.512513
0.49248
0.445226
0.41385
0.391531
0.371545
0.354764
0.354992
0.343042
0.33678
0.332243
0.329243
0.33612
0.337809
0.336894
0.328776
0.669433
0.671623
0.671075
0.665638
0.658389
0.664106
0.661687
0.658534
0.650617
0.643516
0.627737
0.612205
0.587694
0.551846
0.515427
0.48172
0.447069
0.414072
0.39278
0.365633
0.350973
0.355192
0.3429
0.337726
0.338031
0.336561
0.336594
0.340006
0.328042
0.33228
0.665916
0.676192
0.674051
0.670098
0.660693
0.654725
0.664435
0.650282
0.650991
0.648476
0.63249
0.618332
0.58943
0.559812
0.514451
0.476644
0.446266
0.416509
0.393352
0.37206
0.353182
0.351802
0.339277
0.342092
0.335642
0.335927
0.335551
0.331339
0.329577
0.341209
0.669201
0.667879
0.669133
0.662468
0.665748
0.664694
0.662202
0.654078
0.650027
0.645251
0.627764
0.611451
0.589631
0.555757
0.518845
0.481445
0.446219
0.416348
0.391227
0.377373
0.358178
0.346932
0.332913
0.333909
0.33239
0.339499
0.339421
0.32716
0.336861
0.340876
0.664034
0.665419
0.660964
0.664067
0.664649
0.663146
0.663906
0.656547
0.65095
0.650328
0.624818
0.616671
0.585209
0.554687
0.516619
0.478259
0.442203
0.41189
0.39619
0.370178
0.357634
0.348934
0.342275
0.339055
0.341066
0.337534
0.336966
0.330911
0.329885
0.333323
0.670957
0.672749
0.665186
0.661535
0.664187
0.662674
0.664769
0.658657
0.654254
0.644173
0.630453
0.616876
0.583903
0.560519
0.523725
0.478442
0.449598
0.412472
0.391708
0.370319
0.357489
0.349956
0.346193
0.343682
0.336724
0.329158
0.332074
0.330939
0.335305
0.331564
0.669871
0.665773
0.666231
0.668668
0.667386
0.666759
0.659713
0.652859
0.653021
0.652529
0.631052
0.61122
0.580459
0.557292
0.522804
0.476274
0.444653
0.420273
0.391324
0.367342
0.358114
0.348022
0.339369
0.338264
0.338345
0.342087
0.33962
0.33587
0.336692
0.328025
0.657929
0.663471
0.6679
0.66537
0.664434
0.670338
0.664802
0.657078
0.654176
0.640335
0.619646
0.610214
0.589973
0.562388
0.513877
0.474641
0.441332
0.411317
0.387691
0.358788
0.35102
0.341899
0.344047
0.334792
0.341218
0.339269
0.336127
0.335306
0.33755
0.333075
0.662721
0.658107
0.664838
0.664246
0.670273
0.665594
0.655931
0.650297
0.650741
0.637753
0.619436
0.611343
0.587761
0.556525
0.512271
0.488282
0.444567
0.411107
0.390445
0.372042
0.354807
0.346742
0.344209
0.341706
0.34121
0.336032
0.332303
0.335796
0.335439
0.329691
0.658813
0.663552
0.669876
0.668584
0.665869
0.662483
0.655116
0.653279
0.652554
0.646584
0.634389
0.614084
0.590108
0.556824
0.515156
0.49052
0.438553
0.409081
0.385438
0.373291
0.357867
0.34656
0.341254
0.340028
0.341029
0.339732
0.328601
0.329274
0.329474
0.338623
0.672743
0.663654
0.663651
0.670556
0.668765
0.66285
0.66048
0.660883
0.649516
0.643708
0.63181
0.606834
0.587593
0.546522
0.518804
0.48735
0.446516
0.416075
0.387064
0.371916
0.355422
0.351468
0.340835
0.340653
0.338391
0.33179
0.331741
0.336264
0.332354
0.342554
0.675937
0.669889
0.661053
0.676177
0.671129
0.668633
0.662199
0.661066
0.647115
0.640238
0.631159
0.614569
0.590954
0.550305
0.51997
0.485823
0.446728
0.41074
0.386559
0.372016
0.352673
0.350136
0.340232
0.342221
0.339899
0.337686
0.334357
0.338952
0.335614
0.336883
0.664788
0.668255
0.667815
0.670798
0.665841
0.664547
0.666179
0.654288
0.650049
0.642466
0.63233
0.620618
0.587565
0.554593
0.532144
0.482335
0.44964
0.411562
0.389539
0.367246
0.358775
0.35022
0.349638
0.340475
0.341791
0.336772
0.332749
0.333875
0.330789
0.335822
0.669594
0.672142
0.665351
0.671963
0.669436
0.662404
0.655974
0.653288
0.653556
0.643965
0.626822
0.61107
0.582001
0.556611
0.516877
0.478788
0.443257
0.410255
0.388148
0.373352
0.358837
0.349929
0.342624
0.341064
0.339079
0.330636
0.326873
0.333266
0.336036
0.334881
0.669859
0.671542
0.665473
0.664785
0.661788
0.668455
0.664849
0.659805
0.651797
0.638259
0.623557
0.618817
0.583429
0.553306
0.525781
0.484348
0.447942
0.405939
0.390516
0.375212
0.358658
0.3513
0.342712
0.34078
0.33832
0.33734
0.326725
0.331905
0.33557
0.335792
0.664389
0.662248
0.660019
0.664388
0.662665
0.666303
0.65603
0.648949
0.652484
0.642979
0.638685
0.614613
0.590498
0.561602
0.520142
0.481108
0.447092
0.414094
0.385072
0.367048
0.354015
0.351068
0.338893
0.336794
0.341299
0.337691
0.329763
0.33541
0.334812
0.325678
0.658964
0.662456
0.667203
0.669377
0.664648
0.659025
0.666147
0.660124
0.653811
0.640777
0.625287
0.613022
0.589246
0.548632
0.513395
0.478746
0.441827
0.415916
0.391746
0.369187
0.361145
0.351939
0.347325
0.341574
0.334669
0.335569
0.33111
0.336726
0.332047
0.326097
0.66473
0.67064
0.673614
0.663616
0.662507
0.661653
0.662443
0.652227
0.647444
0.637986
0.624366
0.612363
0.58698
0.554995
0.517812
0.470122
0.445675
0.4061
0.38829
0.370939
0.355696
0.348184
0.339741
0.340844
0.343832
0.34
0.335001
0.339412
0.337723
0.329031
0.66279
0.660327
0.671622
0.665948
0.661701
0.666899
0.672337
0.660663
0.646964
0.635394
0.625054
0.614255
0.58093
0.562949
0.5169
0.480379
0.448274
0.40943
0.381173
0.360766
0.358794
0.344675
0.336827
0.333538
0.335419
0.336099
0.332631
0.34023
0.332181
0.334975
0.666431
0.660806
0.668278
0.662696
0.669995
0.663726
0.665809
0.660041
0.650496
0.64025
0.624734
0.614652
0.58818
0.561944
0.513065
0.484494
0.443432
0.412103
0.38036
0.371249
0.356315
0.347346
0.34289
0.339783
0.338421
0.334116
0.336807
0.332415
0.335207
0.328389
0.659744
0.66204
0.659268
0.663576
0.667526
0.658762
0.659213
0.657119
0.653012
0.646932
0.624588
0.619817
0.590026
0.554635
0.520793
0.478372
0.440252
0.415408
0.386691
0.372024
0.361448
0.347487
0.347412
0.336862
0.337959
0.337013
0.33958
0.328739
0.334229
0.335206
0.665182
0.672551
0.668193
0.66271
0.668939
0.662441
0.661001
0.660702
0.645508
0.640118
0.631003
0.612085
0.587606
0.558043
0.515778
0.474408
0.443708
0.408443
0.383031
0.371408
0.356592
0.344126
0.349169
0.34075
0.3317
0.336304
0.33299
0.338489
0.337262
0.332139
0.675745
0.673324
0.671118
0.667514
0.662797
0.666982
0.663277
0.656417
0.657169
0.643369
0.624277
0.61124
0.581617
0.556248
0.517848
0.478363
0.444048
0.405825
0.385721
0.373546
0.357942
0.348149
0.339725
0.342735
0.335285
0.332247
0.336454
0.335157
0.33195
0.334864
0.676853
0.664876
0.666586
0.662763
0.665299
0.657156
0.658665
0.660681
0.652763
0.645683
0.63099
0.614442
0.587516
0.544641
0.522213
0.478581
0.443003
0.41751
0.387441
0.366231
0.356759
0.355353
0.342906
0.334097
0.335008
0.337272
0.335465
0.328542
0.3316
0.335325
0.665372
0.653604
0.664362
0.664182
0.660074
0.653325
0.658687
0.65916
0.660593
0.650512
0.630462
0.612155
0.583375
0.55332
0.521759
0.479807
0.442217
0.410833
0.390583
0.36961
0.357532
0.34868
0.34626
0.338306
0.338314
0.330365
0.335378
0.333276
0.338453
0.332431
0.663367
0.665001
0.668977
0.661626
0.669992
0.667652
0.656532
0.65596
0.658349
0.647591
0.629151
0.607171
0.584407
0.560374
0.520092
0.487184
0.453615
0.414387
0.388232
0.373321
0.363222
0.346181
0.339257
0.340209
0.340825
0.330117
0.337595
0.336123
0.341454
0.33307
0.666109
0.664728
0.667569
0.661514
0.66637
0.670144
0.664498
0.657163
0.649495
0.646664
0.634357
0.611103
0.58193
0.555245
0.518808
0.481685
0.445534
0.408573
0.388763
0.369409
0.356284
0.353827
0.34051
0.346185
0.33517
0.333158
0.335661
0.341726
0.335197
0.331081
0.662424
0.666592
0.664371
0.663803
0.663556
0.664118
0.655643
0.65555
0.650328
0.645941
0.632711
0.614288
0.583135
0.562162
0.512228
0.481421
0.444406
0.413521
0.3879
0.364762
0.363731
0.349223
0.342804
0.336059
0.336622
0.334387
0.340972
0.33422
0.339481
0.335748
0.664771
0.66056
0.661243
0.664534
0.667829
0.665635
0.664241
0.653801
0.651801
0.646291
0.627051
0.614761
0.586618
0.556173
0.515296
0.48283
0.448159
0.407427
0.388275
0.35802
0.351296
0.352881
0.341359
0.335105
0.339143
0.338449
0.330725
0.339893
0.334563
0.335119
0.667201
0.663056
0.664303
0.663723
0.664023
0.658868
0.662197
0.658571
0.653315
0.641457
0.630258
0.605245
0.583844
0.55604
0.517894
0.479603
0.441615
0.411204
0.380602
0.369551
0.353939
0.352412
0.342057
0.335272
0.333787
0.341816
0.332764
0.337203
0.329134
0.329514
0.667399
0.669148
0.667013
0.66158
0.662786
0.658449
0.667679
0.657696
0.65627
0.645167
0.628807
0.61467
0.590994
0.550313
0.522516
0.476301
0.441148
0.415084
0.389334
0.37412
0.351027
0.351543
0.344482
0.341821
0.334623
0.338407
0.335259
0.333086
0.328279
0.334737
0.670961
0.666538
0.664326
0.662476
0.66533
0.658815
0.657447
0.659695
0.65275
0.64304
0.627693
0.612329
0.592497
0.554315
0.519511
0.47781
0.441554
0.40743
0.391706
0.372999
0.354926
0.351363
0.342287
0.342849
0.32863
0.338621
0.333786
0.336835
0.33761
0.335808
0.664969
0.663811
0.664949
0.664335
0.666261
0.665087
0.657998
0.655622
0.651523
0.642265
0.63151
0.609375
0.591762
0.555286
0.51807
0.481786
0.44509
0.408357
0.385169
0.373133
0.353258
0.339697
0.340917
0.338772
0.331262
0.332646
0.335124
0.336693
0.330819
0.327887
0.662584
0.667748
0.658445
0.662039
0.666998
0.668369
0.658849
0.658216
0.649615
0.639543
0.63167
0.605988
0.583843
0.557603
0.512677
0.474683
0.440818
0.415518
0.387809
0.371222
0.351543
0.349503
0.350525
0.343371
0.334943
0.336961
0.330573
0.33065
0.32655
0.339848
0.669364
0.671078
0.665405
0.660396
0.665856
0.671168
0.664849
0.654461
0.65446
0.64214
0.63321
0.617478
0.582923
0.54916
0.518158
0.476977
0.44125
0.407712
0.391295
0.366083
0.353352
0.349154
0.341354
0.336219
0.341391
0.340868
0.327019
0.327878
0.333431
0.331093
0.668175
0.668075
0.666448
0.667009
0.665993
0.662882
0.657036
0.663676
0.65455
0.640329
0.630773
0.609745
0.583106
0.557918
0.523297
0.486007
0.447517
0.413345
0.392472
0.370127
0.359252
0.345806
0.34117
0.34254
0.333439
0.330316
0.331861
0.331758
0.335382
0.336967
0.66788
0.67004
0.668556
0.660865
0.660292
0.661684
0.656702
0.654783
0.655665
0.641658
0.622041
0.619073
0.580703
0.556724
0.512173
0.478131
0.442124
0.408934
0.383221
0.366882
0.358386
0.35716
0.342178
0.338048
0.3335
0.336684
0.333454
0.324759
0.330657
0.338305
0.661761
0.673727
0.663248
0.663713
0.664842
0.659003
0.660934
0.6598
0.647689
0.644568
0.632699
0.610441
0.582621
0.561372
0.514963
0.481228
0.444666
0.414581
0.387777
0.367462
0.351886
0.347525
0.345326
0.339141
0.3341
0.338018
0.338403
0.330935
0.3302
0.341936
0.670132
0.666593
0.667954
0.66575
0.666896
0.6664
0.660863
0.655481
0.650797
0.642502
0.630438
0.612749
0.585517
0.561475
0.527005
0.487609
0.447258
0.408562
0.390348
0.368835
0.361349
0.35056
0.34946
0.339887
0.334607
0.33678
0.333468
0.336113
0.332058
0.330794
0.662953
0.666106
0.670101
0.666071
0.669316
0.667293
0.66433
0.661323
0.645739
0.639863
0.626342
0.607521
0.587836
0.552744
0.514814
0.48024
0.448146
0.411201
0.389152
0.370746
0.357673
0.350108
0.346725
0.337088
0.332956
0.336596
0.336281
0.331259
0.337254
0.339721
0.668759
0.668235
0.665688
0.674992
0.661409
0.660697
0.6622
0.656888
0.655233
0.641014
0.634086
0.6068
0.586569
0.554223
0.516178
0.471325
0.448033
0.416235
0.394098
0.373821
0.361246
0.342573
0.345177
0.337438
0.341435
0.337954
0.336099
0.335243
0.33393
0.333431
0.671761
0.667961
0.669368
0.667108
0.658722
0.666665
0.660436
0.651828
0.656845
0.64479
0.630051
0.609257
0.589247
0.557064
0.52342
0.482138
0.439741
0.415448
0.39882
0.374098
0.359724
0.345056
0.346173
0.337232
0.342119
0.335886
0.33926
0.326959
0.331704
0.33435
0.664142
0.674877
0.673727
0.665045
0.662602
0.670977
0.659876
0.652437
0.65457
0.641304
0.628248
0.611712
0.587212
0.554315
0.518277
0.479338
0.444854
0.412165
0.386387
0.36922
0.352625
0.344546
0.339507
0.340057
0.336027
0.336575
0.331154
0.327818
0.33814
0.335401
0.667251
0.670443
0.66608
0.664865
0.658717
0.668951
0.658524
0.651653
0.651355
0.643296
0.627934
0.610578
0.577418
0.553062
0.511805
0.479309
0.437799
0.411689
0.386893
0.36769
0.360974
0.344806
0.33842
0.338962
0.334539
0.337538
0.33611
0.330395
0.328406
0.338899
0.67601
0.667366
0.665911
0.662992
0.65624
0.665578
0.660492
0.65881
0.652875
0.638403
0.633395
0.618743
0.58799
0.55757
0.520967
0.480975
0.443836
0.41552
0.388054
0.369945
0.358674
0.347318
0.343009
0.336042
0.341263
0.335457
0.342316
0.333526
0.329837
0.338568
0.675231
0.667483
0.667896
0.65956
0.659575
0.667532
0.655769
0.654094
0.650257
0.639919
0.630508
0.613778
0.592024
0.55575
0.520739
0.476003
0.448183
0.41668
0.387825
0.370977
0.355253
0.344598
0.344872
0.337341
0.338138
0.335116
0.337545
0.334142
0.336299
0.334026
0.664978
0.666415
0.660456
0.665034
0.662193
0.662408
0.65811
0.656645
0.648639
0.645025
0.635254
0.606949
0.590727
0.554154
0.520295
0.484472
0.441546
0.411547
0.384557
0.369958
0.353989
0.345092
0.347043
0.335528
0.333871
0.334869
0.33319
0.332245
0.331616
0.334822
0.670571
0.667245
0.661003
0.66876
0.669094
0.662049
0.663118
0.659641
0.652996
0.640686
0.631872
0.619501
0.589021
0.558153
0.515622
0.478015
0.447901
0.412421
0.391095
0.371784
0.35374
0.348743
0.343229
0.343121
0.336635
0.332354
0.326424
0.333734
0.335929
0.337163
0.66903
0.668685
0.669476
0.668113
0.664014
0.660966
0.655078
0.656175
0.652914
0.640338
0.627938
0.614141
0.594073
0.557289
0.522007
0.494429
0.449513
0.42041
0.385816
0.366847
0.354611
0.352151
0.344645
0.340261
0.339405
0.338509
0.335654
0.33463
0.33965
0.331214
0.667008
0.668717
0.664449
0.657332
0.663494
0.662565
0.662314
0.663107
0.652038
0.644433
0.628464
0.604472
0.587633
0.54775
0.526149
0.480814
0.44136
0.410806
0.392474
0.373721
0.355987
0.350421
0.342253
0.341168
0.337346
0.337409
0.333669
0.33225
0.336974
0.328479
0.667083
0.663888
0.664351
0.665425
0.664937
0.662354
0.664842
0.6581
0.656553
0.64678
0.626766
0.610393
0.586614
0.558474
0.520112
0.485313
0.444219
0.418407
0.40083
0.372829
0.354799
0.346016
0.342511
0.342997
0.337037
0.329074
0.334987
0.336073
0.331957
0.338336
0.667941
0.670519
0.664559
0.665745
0.662868
0.665913
0.658564
0.655876
0.648894
0.644535
0.624289
0.614537
0.584925
0.557888
0.524352
0.474784
0.437259
0.413841
0.384814
0.364098
0.349442
0.342922
0.342191
0.343894
0.335202
0.331208
0.329919
0.332482
0.328933
0.334664
0.670702
0.671058
0.67258
0.66609
0.656778
0.664235
0.656172
0.657388
0.656728
0.645755
0.623519
0.614971
0.585952
0.562098
0.520126
0.480515
0.443933
0.415931
0.390905
0.375408
0.355645
0.345185
0.341944
0.342253
0.338769
0.335144
0.334777
0.331173
0.329529
0.333751
0.66108
0.666188
0.667274
0.665976
0.666274
0.660937
0.663164
0.656986
0.645832
0.643178
0.632409
0.609957
0.590709
0.564049
0.516407
0.477867
0.447916
0.413726
0.382258
0.377694
0.360175
0.344705
0.335818
0.33589
0.334727
0.33347
0.33999
0.335531
0.332583
0.327907
0.667945
0.66328
0.66093
0.665059
0.676058
0.663177
0.661169
0.65358
0.646908
0.64194
0.625409
0.615265
0.591181
0.560994
0.5198
0.480278
0.441497
0.406919
0.387324
0.370251
0.355217
0.35085
0.343651
0.344765
0.331312
0.331938
0.331384
0.331167
0.332733
0.337218
0.670636
0.66907
0.662955
0.660762
0.667848
0.662295
0.659315
0.659626
0.653591
0.641356
0.624097
0.61073
0.583736
0.552705
0.519933
0.480122
0.444626
0.411963
0.385212
0.36005
0.355114
0.349924
0.343565
0.343879
0.331233
0.335511
0.334888
0.333814
0.335054
0.328912
0.666281
0.665605
0.661575
0.668291
0.664473
0.661405
0.662785
0.655657
0.654631
0.648977
0.637158
0.61345
0.586216
0.557166
0.516324
0.478777
0.443361
0.413534
0.387515
0.369489
0.363871
0.350913
0.344771
0.340368
0.338571
0.335381
0.340443
0.336729
0.33682
0.33356
0.665941
0.661441
0.662966
0.667792
0.664725
0.659796
0.662631
0.651339
0.650677
0.638385
0.62982
0.613303
0.58618
0.554078
0.522395
0.47819
0.446275
0.416522
0.38492
0.364195
0.358821
0.341746
0.337607
0.339259
0.346613
0.336766
0.339168
0.329941
0.333732
0.330421
0.66891
0.660891
0.665756
0.66795
0.662713
0.666838
0.662387
0.656957
0.645476
0.64015
0.628604
0.61468
0.592975
0.554803
0.52089
0.482402
0.441155
0.410689
0.395528
0.372589
0.357258
0.34774
0.341919
0.340451
0.340524
0.333926
0.335703
0.330403
0.335016
0.329324
0.664638
0.668253
0.662254
0.665868
0.659073
0.662322
0.663848
0.658511
0.647439
0.641203
0.639915
0.612126
0.589598
0.554325
0.518502
0.481358
0.451062
0.41157
0.383056
0.367443
0.349997
0.34672
0.34711
0.343249
0.340493
0.33462
0.333113
0.335307
0.333583
0.338346
0.667895
0.661186
0.660515
0.662609
0.666267
0.665755
0.665536
0.662107
0.650329
0.640767
0.631175
0.616761
0.588058
0.554101
0.519436
0.479665
0.44214
0.411977
0.385133
0.365712
0.354471
0.350724
0.349423
0.338811
0.336893
0.338095
0.331107
0.330307
0.334778
0.332795
0.670165
0.668789
0.660428
0.662127
0.666874
0.66535
0.659657
0.656456
0.648147
0.638543
0.625957
0.609675
0.58683
0.556749
0.521384
0.4809
0.44422
0.411045
0.386243
0.369455
0.355762
0.343315
0.348234
0.340016
0.338427
0.33876
0.339297
0.33277
0.336475
0.329101
0.668326
0.659243
0.668144
0.666023
0.665991
0.666816
0.658935
0.649785
0.653398
0.641654
0.628065
0.614462
0.585415
0.550805
0.519949
0.478912
0.445484
0.410719
0.392378
0.372324
0.358789
0.350226
0.346513
0.341782
0.337919
0.336957
0.330283
0.328839
0.328491
0.333649
0.669321
0.666145
0.665633
0.660191
0.660507
0.660476
0.664469
0.654264
0.64809
0.642165
0.62967
0.611553
0.58578
0.555589
0.516208
0.480042
0.443384
0.412865
0.393354
0.376201
0.355803
0.350874
0.345525
0.333097
0.334899
0.334915
0.333168
0.338777
0.328619
0.33512
0.66397
0.668215
0.668227
0.66353
0.662847
0.665158
0.664013
0.652856
0.649318
0.641876
0.629883
0.616176
0.584159
0.552649
0.521726
0.4724
0.443008
0.409739
0.388217
0.37115
0.356288
0.349275
0.345256
0.336054
0.334133
0.337246
0.334419
0.337749
0.336679
0.33618
0.66598
0.664386
0.664594
0.667941
0.661848
0.65785
0.654153
0.655386
0.649646
0.644462
0.624841
0.61564
0.587943
0.555141
0.518035
0.474286
0.445932
0.413867
0.382563
0.373693
0.360645
0.350336
0.340104
0.336434
0.337562
0.336869
0.335406
0.33243
0.33772
0.334097
0.665234
0.668404
0.669
0.668384
0.660983
0.665801
0.664659
0.657959
0.651179
0.646239
0.634449
0.612038
0.586094
0.550336
0.512636
0.475856
0.441411
0.409002
0.383346
0.366778
0.358004
0.353082
0.338884
0.336391
0.334034
0.333069
0.329395
0.326928
0.331998
0.331788
0.667815
0.67502
0.666352
0.666623
0.661149
0.662195
0.658632
0.659226
0.648187
0.64836
0.628933
0.612582
0.586992
0.549694
0.520832
0.478896
0.448732
0.412535
0.384988
0.375168
0.365402
0.353456
0.343102
0.341796
0.336663
0.335544
0.330205
0.333325
0.337031
0.33083
0.669586
0.66354
0.670025
0.669971
0.657211
0.667512
0.668321
0.656832
0.644976
0.638704
0.628364
0.614881
0.585264
0.559471
0.521293
0.48231
0.441689
0.417231
0.38773
0.371541
0.364942
0.346229
0.34879
0.340895
0.335373
0.336504
0.328121
0.336886
0.338604
0.336072
0.665265
0.664727
0.668499
0.663181
0.663373
0.665413
0.654904
0.653683
0.651719
0.643904
0.629101
0.613592
0.583619
0.553628
0.519464
0.479231
0.438552
0.404211
0.388381
0.373396
0.357964
0.353605
0.344393
0.338007
0.335655
0.334763
0.338868
0.330387
0.333928
0.332376
0.669918
0.675065
0.666261
0.6615
0.661674
0.668465
0.661099
0.657302
0.648438
0.642601
0.63045
0.614989
0.587056
0.555496
0.52259
0.481864
0.443742
0.40391
0.382467
0.375194
0.364405
0.34718
0.335392
0.334348
0.332644
0.33464
0.336725
0.327827
0.335993
0.334883
0.662543
0.673588
0.663653
0.668738
0.660687
0.661996
0.652482
0.663354
0.648224
0.637617
0.628182
0.611581
0.59398
0.556379
0.516046
0.478714
0.447655
0.41721
0.386296
0.36951
0.360228
0.346757
0.344733
0.339202
0.330539
0.334356
0.329958
0.336421
0.333769
0.328742
0.664773
0.664059
0.672422
0.668563
0.663368
0.662964
0.664589
0.656331
0.650347
0.646108
0.628386
0.60656
0.581266
0.557887
0.514821
0.481464
0.449923
0.413642
0.386475
0.373687
0.358984
0.342728
0.343293
0.343555
0.340522
0.332004
0.330792
0.336109
0.331177
0.333317
0.664793
0.663422
0.661594
0.66065
0.664071
0.663984
0.66861
0.658354
0.651458
0.635753
0.628743
0.605057
0.585773
0.558672
0.520261
0.478472
0.447834
0.421984
0.392242
0.368179
0.352303
0.344172
0.340431
0.341619
0.339773
0.339673
0.3369
0.334165
0.337867
0.333528
0.661807
0.660386
0.660614
0.665171
0.664334
0.664842
0.665418
0.658466
0.658921
0.635811
0.631421
0.610304
0.58736
0.554874
0.520384
0.471644
0.444213
0.414553
0.395435
0.374739
0.352702
0.349507
0.344796
0.343886
0.335175
0.338362
0.336977
0.331468
0.334674
0.334456
0.664753
0.66557
0.672843
0.665752
0.661095
0.661488
0.660489
0.658926
0.656526
0.640368
0.62424
0.612012
0.580897
0.553971
0.516837
0.483458
0.446999
0.408683
0.384592
0.375368
0.359364
0.350501
0.342721
0.342325
0.335897
0.333953
0.341617
0.32674
0.336105
0.331259
0.66183
0.662588
0.668778
0.671353
0.664758
0.661374
0.66163
0.65541
0.653409
0.644036
0.633634
0.61473
0.582993
0.558825
0.513859
0.483439
0.44267
0.414964
0.389359
0.372587
0.359236
0.348935
0.343033
0.341825
0.337419
0.332275
0.33371
0.334611
0.333585
0.333672
0.658656
0.664014
0.671897
0.667589
0.662093
0.664141
0.661549
0.651558
0.648796
0.64189
0.626183
0.6163
0.592875
0.560315
0.518435
0.483706
0.445744
0.41653
0.39278
0.37188
0.35832
0.348432
0.341182
0.338489
0.342224
0.330534
0.334328
0.335074
0.33999
0.326677
0.663054
0.665812
0.667033
0.664959
0.660457
0.661755
0.663147
0.657991
0.649655
0.646501
0.632481
0.614519
0.590389
0.554046
0.517531
0.480724
0.445994
0.411655
0.39186
0.370355
0.356739
0.349176
0.342911
0.337793
0.336336
0.335995
0.33764
0.32999
0.336519
0.331614
0.669516
0.667136
0.671786
0.666939
0.664844
0.657487
0.657508
0.657458
0.652039
0.647757
0.635648
0.613516
0.587056
0.553703
0.513927
0.476592
0.440082
0.414123
0.389473
0.37394
0.356942
0.349865
0.347516
0.337253
0.33407
0.335689
0.335232
0.329931
0.330333
0.335378
0.6735
0.663514
0.663986
0.665115
0.665223
0.659999
0.661506
0.664633
0.654057
0.645741
0.634042
0.613019
0.590075
0.552657
0.521062
0.479119
0.44598
0.413625
0.388932
0.368755
0.356389
0.348522
0.343498
0.337156
0.332374
0.3352
0.3356
0.337234
0.331435
0.339326
0.669792
0.667732
0.665041
0.669179
0.66876
0.65901
0.659445
0.658885
0.651242
0.639865
0.63187
0.60957
0.585227
0.558824
0.522122
0.484516
0.432786
0.408534
0.386558
0.36898
0.360981
0.343678
0.339186
0.340334
0.336284
0.337315
0.333493
0.3312
0.331741
0.326251
0.663516
0.663829
0.662435
0.669633
0.660505
0.66017
0.658068
0.65653
0.655829
0.641347
0.61901
0.606241
0.588263
0.549981
0.521881
0.487137
0.438634
0.410857
0.38403
0.37263
0.362089
0.344479
0.339957
0.344044
0.334637
0.330505
0.331969
0.336797
0.333451
0.329697
0.662842
0.672829
0.66156
0.668208
0.669754
0.663925
0.660761
0.652606
0.652117
0.643172
0.632055
0.610582
0.585307
0.556572
0.519858
0.4822
0.445192
0.416473
0.384992
0.366959
0.3565
0.346466
0.334365
0.341989
0.33476
0.337304
0.336557
0.332892
0.328764
0.330244
0.665628
0.668954
0.674042
0.661232
0.663243
0.658064
0.659817
0.659377
0.647499
0.64507
0.633997
0.614248
0.585662
0.553979
0.527708
0.476767
0.44824
0.413013
0.387544
0.36937
0.357429
0.34511
0.336033
0.341139
0.330739
0.33416
0.335163
0.334228
0.33461
0.33653
0.664369
0.660574
0.668433
0.662843
0.660628
0.662648
0.659575
0.655626
0.650238
0.641469
0.633713
0.621893
0.588535
0.550484
0.518163
0.483623
0.44875
0.413655
0.388799
0.370175
0.357371
0.349557
0.341956
0.34376
0.33744
0.340537
0.331928
0.336048
0.331902
0.335191
0.664815
0.668633
0.664057
0.666187
0.663135
0.657003
0.659187
0.657615
0.651715
0.643735
0.630837
0.612484
0.589003
0.549812
0.51182
0.475856
0.441627
0.413809
0.391037
0.376845
0.363936
0.354783
0.34444
0.346947
0.334208
0.336514
0.328554
0.331555
0.331203
0.335623
0.661997
0.666994
0.667321
0.66348
0.665482
0.665994
0.656665
0.660149
0.650531
0.644114
0.632206
0.609256
0.587591
0.556412
0.51678
0.475201
0.442682
0.415054
0.390248
0.373737
0.353062
0.350424
0.347164
0.346536
0.341166
0.333842
0.329834
0.324037
0.331038
0.333354
0.668166
0.667191
0.667205
0.671257
0.667919
0.664055
0.659349
0.662066
0.656558
0.641967
0.624712
0.611595
0.585915
0.559897
0.5178
0.476593
0.445172
0.418932
0.395515
0.374381
0.360678
0.347494
0.343982
0.333552
0.334664
0.336787
0.33615
0.332028
0.337864
0.332332
0.665527
0.665911
0.665449
0.670019
0.666218
0.659994
0.655488
0.661353
0.648965
0.642511
0.62246
0.618144
0.595455
0.55898
0.519135
0.480454
0.439499
0.414965
0.395145
0.374236
0.354898
0.346165
0.344886
0.340729
0.335221
0.337079
0.339608
0.329358
0.34091
0.334879
0.666558
0.659346
0.671776
0.671079
0.66149
0.664082
0.659727
0.651218
0.647581
0.639688
0.627754
0.615007
0.580392
0.558561
0.518321
0.483868
0.447683
0.411299
0.386695
0.366168
0.352038
0.351453
0.342251
0.338663
0.335434
0.341639
0.33907
0.33599
0.336169
0.333474
0.667696
0.664588
0.666201
0.666974
0.656612
0.659875
0.661282
0.65298
0.65404
0.647641
0.622416
0.608817
0.582588
0.560697
0.518273
0.487185
0.446166
0.415091
0.389307
0.368158
0.356749
0.348375
0.344852
0.332623
0.335632
0.336141
0.332508
0.335954
0.332452
0.331612
0.662653
0.67035
0.666126
0.665111
0.665743
0.666206
0.661322
0.655786
0.655503
0.643501
0.634006
0.614005
0.586045
0.555176
0.517329
0.477401
0.443968
0.41547
0.390663
0.363477
0.353238
0.348546
0.342198
0.341943
0.342141
0.337498
0.326231
0.333425
0.331296
0.336607
0.667752
0.662093
0.665009
0.661362
0.661941
0.660791
0.65698
0.655572
0.64622
0.645201
0.626356
0.605622
0.577919
0.557647
0.515554
0.475811
0.444591
0.415116
0.391399
0.370472
0.353715
0.343334
0.342435
0.344858
0.334588
0.335693
0.337823
0.339236
0.326365
0.334217
0.668911
0.670656
0.671136
0.659959
0.660239
0.65952
0.657395
0.658801
0.657914
0.644474
0.626566
0.612073
0.585863
0.558587
0.517272
0.478341
0.444516
0.41704
0.38924
0.374678
0.354275
0.34673
0.340894
0.338593
0.336632
0.333566
0.33848
0.336206
0.330464
0.335033
0.6692
0.664711
0.666912
0.665342
0.663275
0.661117
0.654684
0.655958
0.648056
0.641118
0.629351
0.614971
0.590522
0.561242
0.513707
0.473385
0.445156
0.406159
0.382609
0.361476
0.357275
0.347431
0.346315
0.336356
0.339588
0.336895
0.333219
0.339167
0.334357
0.340344
0.66926
0.667938
0.668368
0.666875
0.668567
0.665725
0.659139
0.662029
0.651421
0.64238
0.629416
0.607899
0.593468
0.55385
0.518232
0.479673
0.438249
0.418613
0.392858
0.369813
0.361049
0.344454
0.341809
0.338756
0.340366
0.340795
0.333824
0.337601
0.332432
0.328009
0.66486
0.670431
0.667983
0.668424
0.667467
0.661258
0.657377
0.655726
0.652797
0.640591
0.630036
0.610693
0.591605
0.557607
0.520204
0.479143
0.444327
0.412285
0.393059
0.3618
0.355481
0.350656
0.343374
0.33839
0.337286
0.332213
0.335081
0.335172
0.332083
0.339561
0.671344
0.666532
0.667357
0.668459
0.665239
0.666528
0.657191
0.657349
0.650641
0.640402
0.629233
0.614238
0.585336
0.554933
0.522058
0.483163
0.439207
0.406179
0.384447
0.376238
0.357122
0.352514
0.346376
0.339367
0.337135
0.332955
0.34045
0.331488
0.333366
0.328258
0.669711
0.668888
0.666273
0.666497
0.666814
0.66238
0.661787
0.656832
0.64884
0.648371
0.631004
0.607857
0.591039
0.557491
0.523365
0.482643
0.439889
0.41376
0.382979
0.365656
0.361657
0.35317
0.337811
0.335349
0.332474
0.337236
0.340009
0.333153
0.334935
0.323877
0.660774
0.657478
0.670379
0.666817
0.665019
0.66621
0.65753
0.656859
0.651346
0.648457
0.629001
0.609068
0.58177
0.556763
0.518857
0.479045
0.446851
0.409571
0.381715
0.373208
0.358586
0.350237
0.344688
0.344661
0.339164
0.334945
0.335324
0.331064
0.330391
0.340342
0.668505
0.669215
0.66111
0.659791
0.664152
0.662726
0.664582
0.660914
0.654811
0.640206
0.629139
0.609941
0.588531
0.556825
0.521075
0.482795
0.446565
0.404686
0.381736
0.370397
0.356342
0.344501
0.342016
0.339111
0.339876
0.339579
0.336301
0.331101
0.329607
0.331959
0.66817
0.670075
0.667893
0.662642
0.662029
0.6639
0.660362
0.657007
0.651436
0.639162
0.625555
0.610297
0.588042
0.561421
0.516113
0.485432
0.44926
0.409999
0.388214
0.367808
0.357323
0.353433
0.34495
0.340101
0.335732
0.338876
0.33092
0.334264
0.330009
0.332062
0.66392
0.670678
0.668062
0.666086
0.667133
0.664072
0.660698
0.65939
0.656328
0.644617
0.632935
0.620741
0.587606
0.563798
0.524121
0.483991
0.443383
0.405497
0.38004
0.366814
0.351658
0.347849
0.346199
0.340781
0.336882
0.338451
0.32969
0.329808
0.332429
0.332563
0.668073
0.666601
0.663493
0.663658
0.666619
0.662325
0.65645
0.656858
0.651333
0.641217
0.626961
0.612698
0.5964
0.564537
0.520772
0.480354
0.43847
0.411092
0.388251
0.369529
0.354491
0.345974
0.345946
0.33823
0.339061
0.333677
0.330988
0.334491
0.339422
0.332631
0.668228
0.664615
0.667116
0.665676
0.664194
0.663348
0.661821
0.663208
0.651657
0.638599
0.629135
0.609288
0.586507
0.55933
0.518374
0.476305
0.440017
0.408326
0.381598
0.370538
0.354476
0.34459
0.340572
0.331953
0.334973
0.343724
0.341218
0.334152
0.338738
0.336488
0.671336
0.664965
0.659962
0.666651
0.67166
0.664213
0.659291
0.657424
0.65407
0.644996
0.628203
0.609619
0.588512
0.55413
0.512803
0.477547
0.439561
0.409826
0.388861
0.37899
0.354908
0.344072
0.344199
0.339494
0.336911
0.336955
0.332635
0.3317
0.338427
0.33448
0.665959
0.663561
0.667412
0.659382
0.666701
0.655995
0.666471
0.651572
0.653288
0.644108
0.627484
0.611741
0.580213
0.553692
0.518785
0.479822
0.438737
0.411414
0.385918
0.367192
0.366124
0.349651
0.345626
0.341299
0.338119
0.335206
0.333706
0.333175
0.337647
0.333797
0.669089
0.663393
0.668996
0.667076
0.659308
0.665631
0.664334
0.658056
0.651856
0.639596
0.63049
0.615253
0.58763
0.553688
0.521526
0.485443
0.440615
0.410927
0.387229
0.367688
0.363621
0.349937
0.343095
0.338059
0.341383
0.333419
0.339382
0.337037
0.334986
0.330684
0.664445
0.663649
0.662248
0.669752
0.659254
0.660503
0.666378
0.655536
0.650426
0.640849
0.635882
0.614742
0.584581
0.552043
0.518589
0.483451
0.447552
0.410641
0.388002
0.375858
0.357485
0.345762
0.345012
0.337102
0.335836
0.333784
0.336642
0.334914
0.328087
0.333746
0.665555
0.669784
0.658201
0.662296
0.664623
0.663741
0.662418
0.657404
0.648262
0.646966
0.630845
0.611661
0.582463
0.554431
0.516774
0.482799
0.445189
0.419201
0.38955
0.365595
0.352954
0.348543
0.34281
0.340138
0.340691
0.341676
0.331325
0.329411
0.333102
0.342076
0.667693
0.663525
0.662917
0.661846
0.668083
0.665288
0.66021
0.660593
0.650075
0.649274
0.63739
0.612909
0.589327
0.553435
0.510965
0.479235
0.438121
0.408464
0.396985
0.364928
0.358909
0.347147
0.342969
0.336977
0.33413
0.337372